
     Program PWSCF v.7.0 starts on 28Feb2022 at  2:56:41 

     This program is part of the open-source Quantum ESPRESSO suite
     for quantum simulation of materials; please cite
         "P. Giannozzi et al., J. Phys.:Condens. Matter 21 395502 (2009);
         "P. Giannozzi et al., J. Phys.:Condens. Matter 29 465901 (2017);
         "P. Giannozzi et al., J. Chem. Phys. 152 154105 (2020);
          URL http://www.quantum-espresso.org", 
     in publications or presentations arising from this work. More details at
     http://www.quantum-espresso.org/quote

     Serial version
     560 MiB available memory on the printing compute node when the environment starts

     Waiting for input...
     Reading input from standard input

     Current dimensions of program PWSCF are:
     Max number of different atomic species (ntypx) = 10
     Max number of k-points (npk) =  40000
     Max angular momentum in pseudopotentials (lmaxx) =  4

     File ./.update deleted, as requested

     File ./.bfgs deleted, as requested

    ============================================================
    |  pseudopotential report for atomic species:  1           |
    |        pseudo potential version   7   3   2              |
    ------------------------------------------------------------
    |  hydrogen            PBE                  exchange-corr  |
    |  z =   1.    zv( 1) =   1.    exfact =   5.00000         |
    |  ifpcor =  0           atomic energy =  -0.91772 Ry      |
    |  index    orbital      occupation    energy              |
    |    1        100           1.00       -0.48               |
    |  rinner =  0.5000                                        |
    |    new generation scheme:                                |
    |    nbeta =  1     kkbeta =  271     rcloc =    0.6000    |
    |    ibeta    l     epsilon   rcut                         |
    |      1       0      -0.48   0.80                         |
    ============================================================

     IMPORTANT: XC functional enforced from input :
     Exchange-correlation= BLYP
                           (   1   3   1   3   0   0   0)
     Any further DFT definition will be discarded
     Please, verify this is what you really want


     G-vector sticks info
     --------------------
     sticks:   dense  smooth     PW     G-vecs:    dense   smooth      PW
     Sum        2869    2869    793               115313   115313   17071

     Using Slab Decomposition



     bravais-lattice index     =            1
     lattice parameter (alat)  =      30.0000  a.u.
     unit-cell volume          =   27000.0000 (a.u.)^3
     number of atoms/cell      =            2
     number of atomic types    =            1
     number of electrons       =         2.00
     number of Kohn-Sham states=            2
     kinetic-energy cutoff     =      10.0000  Ry
     charge density cutoff     =      40.0000  Ry
     scf convergence threshold =      1.0E-08
     mixing beta               =       0.7000
     number of iterations used =            8  plain     mixing
     energy convergence thresh.=      1.0E-04
     force convergence thresh. =      1.0E-03
     Exchange-correlation= BLYP
                           (   1   3   1   3   0   0   0)
     nstep                     =           50


     celldm(1)=  30.000000  celldm(2)=   0.000000  celldm(3)=   0.000000
     celldm(4)=   0.000000  celldm(5)=   0.000000  celldm(6)=   0.000000

     crystal axes: (cart. coord. in units of alat)
               a(1) = (   1.000000   0.000000   0.000000 )  
               a(2) = (   0.000000   1.000000   0.000000 )  
               a(3) = (   0.000000   0.000000   1.000000 )  

     reciprocal axes: (cart. coord. in units 2 pi/alat)
               b(1) = (  1.000000  0.000000  0.000000 )  
               b(2) = (  0.000000  1.000000  0.000000 )  
               b(3) = (  0.000000  0.000000  1.000000 )  


     PseudoPot. # 1 for hy read from file:
     /root/q-e/pseudo/H_US.van
     MD5 check sum: a9a9bfe98ff56cf4de197d71fc46bb44
     Pseudo is Ultrasoft, Zval =  1.0
     Generated by Vanderbilt code, v. 7.3.2
     Using radial grid of  399 points,  1 beta functions with: 
                l(1) =   0
     Q(r) pseudized with  8 coefficients,  rinner =    0.500

     atomic species   valence    mass     pseudopotential
        H              1.00     1.00784     hy( 1.00)

      8 Sym. Ops. (no inversion) found


                                    s                        frac. trans.

      isym =  1     identity                                     

 cryst.   s( 1) = (     1          0          0      )
                  (     0          1          0      )
                  (     0          0          1      )

 cart.    s( 1) = (  1.0000000  0.0000000  0.0000000 )
                  (  0.0000000  1.0000000  0.0000000 )
                  (  0.0000000  0.0000000  1.0000000 )


      isym =  2     180 deg rotation - cart. axis [1,0,0]        

 cryst.   s( 2) = (     1          0          0      )
                  (     0         -1          0      )
                  (     0          0         -1      )

 cart.    s( 2) = (  1.0000000  0.0000000  0.0000000 )
                  (  0.0000000 -1.0000000  0.0000000 )
                  (  0.0000000  0.0000000 -1.0000000 )


      isym =  3      90 deg rotation - cart. axis [-1,0,0]       

 cryst.   s( 3) = (     1          0          0      )
                  (     0          0         -1      )
                  (     0          1          0      )

 cart.    s( 3) = (  1.0000000  0.0000000  0.0000000 )
                  (  0.0000000  0.0000000  1.0000000 )
                  (  0.0000000 -1.0000000  0.0000000 )


      isym =  4      90 deg rotation - cart. axis [1,0,0]        

 cryst.   s( 4) = (     1          0          0      )
                  (     0          0          1      )
                  (     0         -1          0      )

 cart.    s( 4) = (  1.0000000  0.0000000  0.0000000 )
                  (  0.0000000  0.0000000 -1.0000000 )
                  (  0.0000000  1.0000000  0.0000000 )


      isym =  5     inv. 180 deg rotation - cart. axis [0,0,1]   

 cryst.   s( 5) = (     1          0          0      )
                  (     0          1          0      )
                  (     0          0         -1      )

 cart.    s( 5) = (  1.0000000  0.0000000  0.0000000 )
                  (  0.0000000  1.0000000  0.0000000 )
                  (  0.0000000  0.0000000 -1.0000000 )


      isym =  6     inv. 180 deg rotation - cart. axis [0,1,0]   

 cryst.   s( 6) = (     1          0          0      )
                  (     0         -1          0      )
                  (     0          0          1      )

 cart.    s( 6) = (  1.0000000  0.0000000  0.0000000 )
                  (  0.0000000 -1.0000000  0.0000000 )
                  (  0.0000000  0.0000000  1.0000000 )


      isym =  7     inv. 180 deg rotation - cart. axis [0,1,1]   

 cryst.   s( 7) = (     1          0          0      )
                  (     0          0         -1      )
                  (     0         -1          0      )

 cart.    s( 7) = (  1.0000000  0.0000000  0.0000000 )
                  (  0.0000000  0.0000000 -1.0000000 )
                  (  0.0000000 -1.0000000  0.0000000 )


      isym =  8     inv. 180 deg rotation - cart. axis [0,1,-1]  

 cryst.   s( 8) = (     1          0          0      )
                  (     0          0          1      )
                  (     0          1          0      )

 cart.    s( 8) = (  1.0000000  0.0000000  0.0000000 )
                  (  0.0000000  0.0000000  1.0000000 )
                  (  0.0000000  1.0000000  0.0000000 )


     point group C_4v (4mm) 
     there are  5 classes
     the character table:

       E     2C4   C2    2s_v  2s_d 
A_1    1.00  1.00  1.00  1.00  1.00
A_2    1.00  1.00  1.00 -1.00 -1.00
B_1    1.00 -1.00  1.00  1.00 -1.00
B_2    1.00 -1.00  1.00 -1.00  1.00
E      2.00  0.00 -2.00  0.00  0.00

     the symmetry operations in each class and the name of the first element:

     E        1
          identity                                               
     2C4      3    4
           90 deg rotation - cart. axis [-1,0,0]                 
     C2       2
          180 deg rotation - cart. axis [1,0,0]                  
     2s_v     5    6
          inv. 180 deg rotation - cart. axis [0,0,1]             
     2s_d     7    8
          inv. 180 deg rotation - cart. axis [0,1,1]             

   Cartesian axes

     site n.     atom                  positions (alat units)
         1           H   tau(   1) = (   0.0000000   0.0000000   0.0000000  )
         2           H   tau(   2) = (   0.0478731   0.0000000   0.0000000  )

   Crystallographic axes

     site n.     atom                  positions (cryst. coord.)
         1           H   tau(   1) = (  0.0000000  0.0000000  0.0000000  )
         2           H   tau(   2) = (  0.0478731  0.0000000  0.0000000  )

     number of k points=     1
                       cart. coord. in units 2pi/alat
        k(    1) = (  -0.5000000  -0.5000000  -0.5000000), wk =   2.0000000

                       cryst. coord.
        k(    1) = (  -0.5000000  -0.5000000  -0.5000000), wk =   2.0000000

     Dense  grid:   115313 G-vectors     FFT dimensions: (  64,  64,  64)

     Dynamical RAM for                 wfc:       0.44 MB

     Dynamical RAM for     wfc (w. buffer):       0.44 MB

     Dynamical RAM for           str. fact:       1.76 MB

     Dynamical RAM for           local pot:       0.00 MB

     Dynamical RAM for          nlocal pot:       0.44 MB

     Dynamical RAM for                qrad:       0.00 MB

     Dynamical RAM for          rho,v,vnew:      11.28 MB

     Dynamical RAM for               rhoin:       3.76 MB

     Dynamical RAM for            rho*nmix:      28.15 MB

     Dynamical RAM for           G-vectors:       7.48 MB

     Dynamical RAM for          h,s,v(r/c):       0.00 MB

     Dynamical RAM for          <psi|beta>:       0.00 MB

     Dynamical RAM for                 psi:       0.88 MB

     Dynamical RAM for                hpsi:       0.88 MB

     Dynamical RAM for                spsi:       0.88 MB

     Dynamical RAM for      wfcinit/wfcrot:       0.88 MB

     Dynamical RAM for           addusdens:      10.56 MB

     Dynamical RAM for          addusforce:      14.96 MB

     Estimated static dynamical RAM per process >      38.68 MB

     Estimated max dynamical RAM per process >      81.79 MB

     Initial potential from superposition of free atoms

     starting charge       2.0000, renormalised to       2.0000

     negative rho (up, down):  2.089E-01 0.000E+00
     Starting wfcs are    2 randomized atomic wfcs

     total cpu time spent up to now is        0.2 secs

     Self-consistent Calculation

     iteration #  1     ecut=    10.00 Ry     beta= 0.70
     Davidson diagonalization with overlap

---- Real-time Memory Report at c_bands before calling an iterative solver
            81 MiB given to the printing process from OS
             0 MiB allocation reported by mallinfo(arena+hblkhd)
           512 MiB available memory on the node where the printing process lives
------------------
     ethr =  1.00E-02,  avg # of iterations =  5.0

     negative rho (up, down):  3.087E-01 0.000E+00

     total cpu time spent up to now is        0.5 secs

     total energy              =      -2.24687350 Ry
     estimated scf accuracy    <       0.10842094 Ry

     iteration #  2     ecut=    10.00 Ry     beta= 0.70
     Davidson diagonalization with overlap

---- Real-time Memory Report at c_bands before calling an iterative solver
           102 MiB given to the printing process from OS
             0 MiB allocation reported by mallinfo(arena+hblkhd)
           472 MiB available memory on the node where the printing process lives
------------------
     ethr =  5.42E-03,  avg # of iterations =  1.0

     negative rho (up, down):  3.283E-01 0.000E+00

     total cpu time spent up to now is        0.7 secs

     total energy              =      -2.24561025 Ry
     estimated scf accuracy    <       0.00149574 Ry

     iteration #  3     ecut=    10.00 Ry     beta= 0.70
     Davidson diagonalization with overlap

---- Real-time Memory Report at c_bands before calling an iterative solver
           105 MiB given to the printing process from OS
             0 MiB allocation reported by mallinfo(arena+hblkhd)
           468 MiB available memory on the node where the printing process lives
------------------
     ethr =  7.48E-05,  avg # of iterations =  9.0

     negative rho (up, down):  3.274E-01 0.000E+00

     total cpu time spent up to now is        1.0 secs

     total energy              =      -2.24632825 Ry
     estimated scf accuracy    <       0.00003085 Ry

     iteration #  4     ecut=    10.00 Ry     beta= 0.70
     Davidson diagonalization with overlap

---- Real-time Memory Report at c_bands before calling an iterative solver
           109 MiB given to the printing process from OS
             0 MiB allocation reported by mallinfo(arena+hblkhd)
           464 MiB available memory on the node where the printing process lives
------------------
     ethr =  1.54E-06,  avg # of iterations =  6.0

     negative rho (up, down):  3.281E-01 0.000E+00

     total cpu time spent up to now is        1.2 secs

     total energy              =      -2.24603312 Ry
     estimated scf accuracy    <       0.00000515 Ry

     iteration #  5     ecut=    10.00 Ry     beta= 0.70
     Davidson diagonalization with overlap

---- Real-time Memory Report at c_bands before calling an iterative solver
           112 MiB given to the printing process from OS
             0 MiB allocation reported by mallinfo(arena+hblkhd)
           461 MiB available memory on the node where the printing process lives
------------------
     ethr =  2.58E-07,  avg # of iterations =  2.0

     negative rho (up, down):  3.283E-01 0.000E+00

     total cpu time spent up to now is        1.4 secs

     total energy              =      -2.24608366 Ry
     estimated scf accuracy    <       0.00000025 Ry

     iteration #  6     ecut=    10.00 Ry     beta= 0.70
     Davidson diagonalization with overlap

---- Real-time Memory Report at c_bands before calling an iterative solver
           116 MiB given to the printing process from OS
             0 MiB allocation reported by mallinfo(arena+hblkhd)
           457 MiB available memory on the node where the printing process lives
------------------
     ethr =  1.25E-08,  avg # of iterations =  3.0

     negative rho (up, down):  3.283E-01 0.000E+00

     total cpu time spent up to now is        1.7 secs

     total energy              =      -2.24604523 Ry
     estimated scf accuracy    <       0.00000008 Ry

     iteration #  7     ecut=    10.00 Ry     beta= 0.70
     Davidson diagonalization with overlap

---- Real-time Memory Report at c_bands before calling an iterative solver
           120 MiB given to the printing process from OS
             0 MiB allocation reported by mallinfo(arena+hblkhd)
           454 MiB available memory on the node where the printing process lives
------------------
     ethr =  3.81E-09,  avg # of iterations =  5.0

     negative rho (up, down):  3.283E-01 0.000E+00

     total cpu time spent up to now is        1.9 secs

     total energy              =      -2.24603885 Ry
     estimated scf accuracy    <       0.00000032 Ry

     iteration #  8     ecut=    10.00 Ry     beta= 0.70
     Davidson diagonalization with overlap

---- Real-time Memory Report at c_bands before calling an iterative solver
           123 MiB given to the printing process from OS
             0 MiB allocation reported by mallinfo(arena+hblkhd)
           451 MiB available memory on the node where the printing process lives
------------------
     ethr =  3.81E-09,  avg # of iterations =  4.0

     negative rho (up, down):  3.283E-01 0.000E+00

     total cpu time spent up to now is        2.2 secs

     total energy              =      -2.24607769 Ry
     estimated scf accuracy    <       0.00000011 Ry

     iteration #  9     ecut=    10.00 Ry     beta= 0.70
     Davidson diagonalization with overlap

---- Real-time Memory Report at c_bands before calling an iterative solver
           127 MiB given to the printing process from OS
             0 MiB allocation reported by mallinfo(arena+hblkhd)
           447 MiB available memory on the node where the printing process lives
------------------
     ethr =  3.81E-09,  avg # of iterations =  3.0

     negative rho (up, down):  3.283E-01 0.000E+00

     total cpu time spent up to now is        2.4 secs

     total energy              =      -2.24608001 Ry
     estimated scf accuracy    <       0.00000002 Ry

     iteration # 10     ecut=    10.00 Ry     beta= 0.70
     Davidson diagonalization with overlap

---- Real-time Memory Report at c_bands before calling an iterative solver
           130 MiB given to the printing process from OS
             0 MiB allocation reported by mallinfo(arena+hblkhd)
           443 MiB available memory on the node where the printing process lives
------------------
     ethr =  1.09E-09,  avg # of iterations =  4.0

     negative rho (up, down):  3.282E-01 0.000E+00

     total cpu time spent up to now is        2.7 secs

     total energy              =      -2.24612127 Ry
     estimated scf accuracy    <       0.00000014 Ry

     iteration # 11     ecut=    10.00 Ry     beta= 0.70
     Davidson diagonalization with overlap

---- Real-time Memory Report at c_bands before calling an iterative solver
           130 MiB given to the printing process from OS
             0 MiB allocation reported by mallinfo(arena+hblkhd)
           443 MiB available memory on the node where the printing process lives
------------------
     ethr =  1.09E-09,  avg # of iterations =  5.0

     negative rho (up, down):  3.282E-01 0.000E+00

     total cpu time spent up to now is        2.9 secs

     total energy              =      -2.24613580 Ry
     estimated scf accuracy    <       0.00000042 Ry

     iteration # 12     ecut=    10.00 Ry     beta= 0.70
     Davidson diagonalization with overlap

---- Real-time Memory Report at c_bands before calling an iterative solver
           130 MiB given to the printing process from OS
             0 MiB allocation reported by mallinfo(arena+hblkhd)
           443 MiB available memory on the node where the printing process lives
------------------
     ethr =  1.09E-09,  avg # of iterations =  2.0

     negative rho (up, down):  3.282E-01 0.000E+00

     total cpu time spent up to now is        3.1 secs

     total energy              =      -2.24613658 Ry
     estimated scf accuracy    <       0.00000045 Ry

     iteration # 13     ecut=    10.00 Ry     beta= 0.70
     Davidson diagonalization with overlap

---- Real-time Memory Report at c_bands before calling an iterative solver
           130 MiB given to the printing process from OS
             0 MiB allocation reported by mallinfo(arena+hblkhd)
           443 MiB available memory on the node where the printing process lives
------------------
     ethr =  1.09E-09,  avg # of iterations =  2.0

     negative rho (up, down):  3.283E-01 0.000E+00

     total cpu time spent up to now is        3.3 secs

     total energy              =      -2.24612270 Ry
     estimated scf accuracy    <       0.00000047 Ry

     iteration # 14     ecut=    10.00 Ry     beta= 0.70
     Davidson diagonalization with overlap

---- Real-time Memory Report at c_bands before calling an iterative solver
           130 MiB given to the printing process from OS
             0 MiB allocation reported by mallinfo(arena+hblkhd)
           443 MiB available memory on the node where the printing process lives
------------------
     ethr =  1.09E-09,  avg # of iterations =  3.0

     negative rho (up, down):  3.283E-01 0.000E+00

     total cpu time spent up to now is        3.6 secs

     total energy              =      -2.24612326 Ry
     estimated scf accuracy    <       0.00000044 Ry

     iteration # 15     ecut=    10.00 Ry     beta= 0.70
     Davidson diagonalization with overlap

---- Real-time Memory Report at c_bands before calling an iterative solver
           130 MiB given to the printing process from OS
             0 MiB allocation reported by mallinfo(arena+hblkhd)
           443 MiB available memory on the node where the printing process lives
------------------
     ethr =  1.09E-09,  avg # of iterations =  1.0

     negative rho (up, down):  3.283E-01 0.000E+00

     total cpu time spent up to now is        3.8 secs

     total energy              =      -2.24612264 Ry
     estimated scf accuracy    <       0.00000045 Ry

     iteration # 16     ecut=    10.00 Ry     beta= 0.70
     Davidson diagonalization with overlap

---- Real-time Memory Report at c_bands before calling an iterative solver
           130 MiB given to the printing process from OS
             0 MiB allocation reported by mallinfo(arena+hblkhd)
           443 MiB available memory on the node where the printing process lives
------------------
     ethr =  1.09E-09,  avg # of iterations =  1.0

     negative rho (up, down):  3.283E-01 0.000E+00

     total cpu time spent up to now is        4.0 secs

     total energy              =      -2.24612601 Ry
     estimated scf accuracy    <       0.00000044 Ry

     iteration # 17     ecut=    10.00 Ry     beta= 0.70
     Davidson diagonalization with overlap

---- Real-time Memory Report at c_bands before calling an iterative solver
           130 MiB given to the printing process from OS
             0 MiB allocation reported by mallinfo(arena+hblkhd)
           443 MiB available memory on the node where the printing process lives
------------------
     ethr =  1.09E-09,  avg # of iterations =  2.0

     negative rho (up, down):  3.283E-01 0.000E+00

     total cpu time spent up to now is        4.2 secs

     total energy              =      -2.24612345 Ry
     estimated scf accuracy    <       0.00000049 Ry

     iteration # 18     ecut=    10.00 Ry     beta= 0.70
     Davidson diagonalization with overlap

---- Real-time Memory Report at c_bands before calling an iterative solver
           130 MiB given to the printing process from OS
             0 MiB allocation reported by mallinfo(arena+hblkhd)
           443 MiB available memory on the node where the printing process lives
------------------
     ethr =  1.09E-09,  avg # of iterations =  2.0

     negative rho (up, down):  3.283E-01 0.000E+00

     total cpu time spent up to now is        4.4 secs

     total energy              =      -2.24607158 Ry
     estimated scf accuracy    <       0.00000044 Ry

     iteration # 19     ecut=    10.00 Ry     beta= 0.70
     Davidson diagonalization with overlap

---- Real-time Memory Report at c_bands before calling an iterative solver
           130 MiB given to the printing process from OS
             0 MiB allocation reported by mallinfo(arena+hblkhd)
           443 MiB available memory on the node where the printing process lives
------------------
     ethr =  1.09E-09,  avg # of iterations =  4.0

     negative rho (up, down):  3.284E-01 0.000E+00

     total cpu time spent up to now is        4.6 secs

     total energy              =      -2.24599431 Ry
     estimated scf accuracy    <       0.00000008 Ry

     iteration # 20     ecut=    10.00 Ry     beta= 0.70
     Davidson diagonalization with overlap

---- Real-time Memory Report at c_bands before calling an iterative solver
           130 MiB given to the printing process from OS
             0 MiB allocation reported by mallinfo(arena+hblkhd)
           443 MiB available memory on the node where the printing process lives
------------------
     ethr =  1.09E-09,  avg # of iterations =  4.0

     negative rho (up, down):  3.284E-01 0.000E+00

     total cpu time spent up to now is        4.9 secs

     total energy              =      -2.24600172 Ry
     estimated scf accuracy    <       0.00000030 Ry

     iteration # 21     ecut=    10.00 Ry     beta= 0.70
     Davidson diagonalization with overlap

---- Real-time Memory Report at c_bands before calling an iterative solver
           130 MiB given to the printing process from OS
             0 MiB allocation reported by mallinfo(arena+hblkhd)
           443 MiB available memory on the node where the printing process lives
------------------
     ethr =  1.09E-09,  avg # of iterations =  3.0

     negative rho (up, down):  3.284E-01 0.000E+00

     total cpu time spent up to now is        5.1 secs

     total energy              =      -2.24598855 Ry
     estimated scf accuracy    <       0.00000028 Ry

     iteration # 22     ecut=    10.00 Ry     beta= 0.70
     Davidson diagonalization with overlap

---- Real-time Memory Report at c_bands before calling an iterative solver
           130 MiB given to the printing process from OS
             0 MiB allocation reported by mallinfo(arena+hblkhd)
           443 MiB available memory on the node where the printing process lives
------------------
     ethr =  1.09E-09,  avg # of iterations =  4.0

     negative rho (up, down):  3.283E-01 0.000E+00

     total cpu time spent up to now is        5.3 secs

     total energy              =      -2.24606012 Ry
     estimated scf accuracy    <       0.00000060 Ry

     iteration # 23     ecut=    10.00 Ry     beta= 0.70
     Davidson diagonalization with overlap

---- Real-time Memory Report at c_bands before calling an iterative solver
           130 MiB given to the printing process from OS
             0 MiB allocation reported by mallinfo(arena+hblkhd)
           443 MiB available memory on the node where the printing process lives
------------------
     ethr =  1.09E-09,  avg # of iterations =  4.0

     negative rho (up, down):  3.283E-01 0.000E+00

     total cpu time spent up to now is        5.6 secs

     total energy              =      -2.24602736 Ry
     estimated scf accuracy    <       0.00000025 Ry

     iteration # 24     ecut=    10.00 Ry     beta= 0.70
     Davidson diagonalization with overlap

---- Real-time Memory Report at c_bands before calling an iterative solver
           130 MiB given to the printing process from OS
             0 MiB allocation reported by mallinfo(arena+hblkhd)
           443 MiB available memory on the node where the printing process lives
------------------
     ethr =  1.09E-09,  avg # of iterations =  4.0

     negative rho (up, down):  3.283E-01 0.000E+00

     total cpu time spent up to now is        5.8 secs

     total energy              =      -2.24604432 Ry
     estimated scf accuracy    <       0.00000038 Ry

     iteration # 25     ecut=    10.00 Ry     beta= 0.70
     Davidson diagonalization with overlap

---- Real-time Memory Report at c_bands before calling an iterative solver
           130 MiB given to the printing process from OS
             0 MiB allocation reported by mallinfo(arena+hblkhd)
           443 MiB available memory on the node where the printing process lives
------------------
     ethr =  1.09E-09,  avg # of iterations =  4.0

     negative rho (up, down):  3.283E-01 0.000E+00

     total cpu time spent up to now is        6.0 secs

     total energy              =      -2.24606631 Ry
     estimated scf accuracy    <       0.00000013 Ry

     iteration # 26     ecut=    10.00 Ry     beta= 0.70
     Davidson diagonalization with overlap

---- Real-time Memory Report at c_bands before calling an iterative solver
           130 MiB given to the printing process from OS
             0 MiB allocation reported by mallinfo(arena+hblkhd)
           443 MiB available memory on the node where the printing process lives
------------------
     ethr =  1.09E-09,  avg # of iterations =  4.0

     negative rho (up, down):  3.283E-01 0.000E+00

     total cpu time spent up to now is        6.3 secs

     total energy              =      -2.24610398 Ry
     estimated scf accuracy    <       0.00000005 Ry

     iteration # 27     ecut=    10.00 Ry     beta= 0.70
     Davidson diagonalization with overlap

---- Real-time Memory Report at c_bands before calling an iterative solver
           130 MiB given to the printing process from OS
             0 MiB allocation reported by mallinfo(arena+hblkhd)
           443 MiB available memory on the node where the printing process lives
------------------
     ethr =  1.09E-09,  avg # of iterations =  4.0

     negative rho (up, down):  3.283E-01 0.000E+00

     total cpu time spent up to now is        6.5 secs

     total energy              =      -2.24603942 Ry
     estimated scf accuracy    <       0.00000014 Ry

     iteration # 28     ecut=    10.00 Ry     beta= 0.70
     Davidson diagonalization with overlap

---- Real-time Memory Report at c_bands before calling an iterative solver
           130 MiB given to the printing process from OS
             0 MiB allocation reported by mallinfo(arena+hblkhd)
           443 MiB available memory on the node where the printing process lives
------------------
     ethr =  1.09E-09,  avg # of iterations =  5.0

     negative rho (up, down):  3.283E-01 0.000E+00

     total cpu time spent up to now is        6.7 secs

     total energy              =      -2.24607461 Ry
     estimated scf accuracy    <       0.00000012 Ry

     iteration # 29     ecut=    10.00 Ry     beta= 0.70
     Davidson diagonalization with overlap

---- Real-time Memory Report at c_bands before calling an iterative solver
           130 MiB given to the printing process from OS
             0 MiB allocation reported by mallinfo(arena+hblkhd)
           443 MiB available memory on the node where the printing process lives
------------------
     ethr =  1.09E-09,  avg # of iterations =  4.0

     negative rho (up, down):  3.283E-01 0.000E+00

     total cpu time spent up to now is        7.0 secs

     total energy              =      -2.24609149 Ry
     estimated scf accuracy    <       0.00000011 Ry

     iteration # 30     ecut=    10.00 Ry     beta= 0.70
     Davidson diagonalization with overlap

---- Real-time Memory Report at c_bands before calling an iterative solver
           130 MiB given to the printing process from OS
             0 MiB allocation reported by mallinfo(arena+hblkhd)
           443 MiB available memory on the node where the printing process lives
------------------
     ethr =  1.09E-09,  avg # of iterations =  4.0

     negative rho (up, down):  3.283E-01 0.000E+00

     total cpu time spent up to now is        7.2 secs

     total energy              =      -2.24604348 Ry
     estimated scf accuracy    <       0.00000014 Ry

     iteration # 31     ecut=    10.00 Ry     beta= 0.70
     Davidson diagonalization with overlap

---- Real-time Memory Report at c_bands before calling an iterative solver
           130 MiB given to the printing process from OS
             0 MiB allocation reported by mallinfo(arena+hblkhd)
           443 MiB available memory on the node where the printing process lives
------------------
     ethr =  1.09E-09,  avg # of iterations =  4.0

     negative rho (up, down):  3.283E-01 0.000E+00

     total cpu time spent up to now is        7.4 secs

     total energy              =      -2.24604747 Ry
     estimated scf accuracy    <       0.00000003 Ry

     iteration # 32     ecut=    10.00 Ry     beta= 0.70
     Davidson diagonalization with overlap

---- Real-time Memory Report at c_bands before calling an iterative solver
           130 MiB given to the printing process from OS
             0 MiB allocation reported by mallinfo(arena+hblkhd)
           443 MiB available memory on the node where the printing process lives
------------------
     ethr =  1.09E-09,  avg # of iterations =  3.0

     negative rho (up, down):  3.283E-01 0.000E+00

     total cpu time spent up to now is        7.7 secs

     total energy              =      -2.24604392 Ry
     estimated scf accuracy    <       0.00000004 Ry

     iteration # 33     ecut=    10.00 Ry     beta= 0.70
     Davidson diagonalization with overlap

---- Real-time Memory Report at c_bands before calling an iterative solver
           130 MiB given to the printing process from OS
             0 MiB allocation reported by mallinfo(arena+hblkhd)
           443 MiB available memory on the node where the printing process lives
------------------
     ethr =  1.09E-09,  avg # of iterations =  2.0

     negative rho (up, down):  3.283E-01 0.000E+00

     total cpu time spent up to now is        7.9 secs

     total energy              =      -2.24606016 Ry
     estimated scf accuracy    <       0.00000003 Ry

     iteration # 34     ecut=    10.00 Ry     beta= 0.70
     Davidson diagonalization with overlap

---- Real-time Memory Report at c_bands before calling an iterative solver
           130 MiB given to the printing process from OS
             0 MiB allocation reported by mallinfo(arena+hblkhd)
           443 MiB available memory on the node where the printing process lives
------------------
     ethr =  1.09E-09,  avg # of iterations =  4.0

     negative rho (up, down):  3.283E-01 0.000E+00

     total cpu time spent up to now is        8.1 secs

     total energy              =      -2.24605453 Ry
     estimated scf accuracy    <       0.00000022 Ry

     iteration # 35     ecut=    10.00 Ry     beta= 0.70
     Davidson diagonalization with overlap

---- Real-time Memory Report at c_bands before calling an iterative solver
           130 MiB given to the printing process from OS
             0 MiB allocation reported by mallinfo(arena+hblkhd)
           443 MiB available memory on the node where the printing process lives
------------------
     ethr =  1.09E-09,  avg # of iterations =  3.0

     negative rho (up, down):  3.283E-01 0.000E+00

     total cpu time spent up to now is        8.4 secs

     total energy              =      -2.24602076 Ry
     estimated scf accuracy    <       0.00000017 Ry

     iteration # 36     ecut=    10.00 Ry     beta= 0.70
     Davidson diagonalization with overlap

---- Real-time Memory Report at c_bands before calling an iterative solver
           130 MiB given to the printing process from OS
             0 MiB allocation reported by mallinfo(arena+hblkhd)
           443 MiB available memory on the node where the printing process lives
------------------
     ethr =  1.09E-09,  avg # of iterations =  4.0

     negative rho (up, down):  3.284E-01 0.000E+00

     total cpu time spent up to now is        8.6 secs

     total energy              =      -2.24598675 Ry
     estimated scf accuracy    <       0.00000051 Ry

     iteration # 37     ecut=    10.00 Ry     beta= 0.70
     Davidson diagonalization with overlap

---- Real-time Memory Report at c_bands before calling an iterative solver
           130 MiB given to the printing process from OS
             0 MiB allocation reported by mallinfo(arena+hblkhd)
           443 MiB available memory on the node where the printing process lives
------------------
     ethr =  1.09E-09,  avg # of iterations =  3.0

     negative rho (up, down):  3.284E-01 0.000E+00

     total cpu time spent up to now is        8.9 secs

     total energy              =      -2.24598931 Ry
     estimated scf accuracy    <       0.00000033 Ry

     iteration # 38     ecut=    10.00 Ry     beta= 0.70
     Davidson diagonalization with overlap

---- Real-time Memory Report at c_bands before calling an iterative solver
           130 MiB given to the printing process from OS
             0 MiB allocation reported by mallinfo(arena+hblkhd)
           443 MiB available memory on the node where the printing process lives
------------------
     ethr =  1.09E-09,  avg # of iterations =  2.0

     negative rho (up, down):  3.283E-01 0.000E+00

     total cpu time spent up to now is        9.1 secs

     total energy              =      -2.24599663 Ry
     estimated scf accuracy    <       0.00000033 Ry

     iteration # 39     ecut=    10.00 Ry     beta= 0.70
     Davidson diagonalization with overlap

---- Real-time Memory Report at c_bands before calling an iterative solver
           130 MiB given to the printing process from OS
             0 MiB allocation reported by mallinfo(arena+hblkhd)
           443 MiB available memory on the node where the printing process lives
------------------
     ethr =  1.09E-09,  avg # of iterations =  4.0

     negative rho (up, down):  3.284E-01 0.000E+00

     total cpu time spent up to now is        9.4 secs

     total energy              =      -2.24597863 Ry
     estimated scf accuracy    <       0.00000048 Ry

     iteration # 40     ecut=    10.00 Ry     beta= 0.70
     Davidson diagonalization with overlap

---- Real-time Memory Report at c_bands before calling an iterative solver
           130 MiB given to the printing process from OS
             0 MiB allocation reported by mallinfo(arena+hblkhd)
           443 MiB available memory on the node where the printing process lives
------------------
     ethr =  1.09E-09,  avg # of iterations =  4.0

     negative rho (up, down):  3.283E-01 0.000E+00

     total cpu time spent up to now is        9.6 secs

     total energy              =      -2.24599296 Ry
     estimated scf accuracy    <       0.00000028 Ry

     iteration # 41     ecut=    10.00 Ry     beta= 0.70
     Davidson diagonalization with overlap

---- Real-time Memory Report at c_bands before calling an iterative solver
           130 MiB given to the printing process from OS
             0 MiB allocation reported by mallinfo(arena+hblkhd)
           443 MiB available memory on the node where the printing process lives
------------------
     ethr =  1.09E-09,  avg # of iterations =  4.0

     negative rho (up, down):  3.283E-01 0.000E+00

     total cpu time spent up to now is        9.9 secs

     total energy              =      -2.24603596 Ry
     estimated scf accuracy    <       0.00000041 Ry

     iteration # 42     ecut=    10.00 Ry     beta= 0.70
     Davidson diagonalization with overlap

---- Real-time Memory Report at c_bands before calling an iterative solver
           130 MiB given to the printing process from OS
             0 MiB allocation reported by mallinfo(arena+hblkhd)
           443 MiB available memory on the node where the printing process lives
------------------
     ethr =  1.09E-09,  avg # of iterations =  4.0

     negative rho (up, down):  3.284E-01 0.000E+00

     total cpu time spent up to now is       10.1 secs

     total energy              =      -2.24603922 Ry
     estimated scf accuracy    <       0.00000021 Ry

     iteration # 43     ecut=    10.00 Ry     beta= 0.70
     Davidson diagonalization with overlap

---- Real-time Memory Report at c_bands before calling an iterative solver
           130 MiB given to the printing process from OS
             0 MiB allocation reported by mallinfo(arena+hblkhd)
           443 MiB available memory on the node where the printing process lives
------------------
     ethr =  1.09E-09,  avg # of iterations =  4.0

     negative rho (up, down):  3.284E-01 0.000E+00

     total cpu time spent up to now is       10.4 secs

     total energy              =      -2.24600549 Ry
     estimated scf accuracy    <       0.00000005 Ry

     iteration # 44     ecut=    10.00 Ry     beta= 0.70
     Davidson diagonalization with overlap

---- Real-time Memory Report at c_bands before calling an iterative solver
           130 MiB given to the printing process from OS
             0 MiB allocation reported by mallinfo(arena+hblkhd)
           443 MiB available memory on the node where the printing process lives
------------------
     ethr =  1.09E-09,  avg # of iterations =  3.0

     negative rho (up, down):  3.286E-01 0.000E+00

     total cpu time spent up to now is       10.6 secs

     total energy              =      -2.24597895 Ry
     estimated scf accuracy    <       0.00000010 Ry

     iteration # 45     ecut=    10.00 Ry     beta= 0.70
     Davidson diagonalization with overlap

---- Real-time Memory Report at c_bands before calling an iterative solver
           130 MiB given to the printing process from OS
             0 MiB allocation reported by mallinfo(arena+hblkhd)
           443 MiB available memory on the node where the printing process lives
------------------
     ethr =  1.09E-09,  avg # of iterations =  4.0

     negative rho (up, down):  3.284E-01 0.000E+00

     total cpu time spent up to now is       10.8 secs

     total energy              =      -2.24600972 Ry
     estimated scf accuracy    <       0.00000062 Ry

     iteration # 46     ecut=    10.00 Ry     beta= 0.70
     Davidson diagonalization with overlap

---- Real-time Memory Report at c_bands before calling an iterative solver
           130 MiB given to the printing process from OS
             0 MiB allocation reported by mallinfo(arena+hblkhd)
           443 MiB available memory on the node where the printing process lives
------------------
     ethr =  1.09E-09,  avg # of iterations =  4.0

     negative rho (up, down):  3.284E-01 0.000E+00

     total cpu time spent up to now is       11.1 secs

     total energy              =      -2.24600342 Ry
     estimated scf accuracy    <       0.00000014 Ry

     iteration # 47     ecut=    10.00 Ry     beta= 0.70
     Davidson diagonalization with overlap

---- Real-time Memory Report at c_bands before calling an iterative solver
           130 MiB given to the printing process from OS
             0 MiB allocation reported by mallinfo(arena+hblkhd)
           443 MiB available memory on the node where the printing process lives
------------------
     ethr =  1.09E-09,  avg # of iterations =  4.0

     negative rho (up, down):  3.281E-01 0.000E+00

     total cpu time spent up to now is       11.3 secs

     total energy              =      -2.24624617 Ry
     estimated scf accuracy    <       0.00000010 Ry

     iteration # 48     ecut=    10.00 Ry     beta= 0.70
     Davidson diagonalization with overlap

---- Real-time Memory Report at c_bands before calling an iterative solver
           130 MiB given to the printing process from OS
             0 MiB allocation reported by mallinfo(arena+hblkhd)
           443 MiB available memory on the node where the printing process lives
------------------
     ethr =  1.09E-09,  avg # of iterations =  4.0

     negative rho (up, down):  3.283E-01 0.000E+00

     total cpu time spent up to now is       11.6 secs

     total energy              =      -2.24601397 Ry
     estimated scf accuracy    <       0.00000033 Ry

     iteration # 49     ecut=    10.00 Ry     beta= 0.70
     Davidson diagonalization with overlap

---- Real-time Memory Report at c_bands before calling an iterative solver
           130 MiB given to the printing process from OS
             0 MiB allocation reported by mallinfo(arena+hblkhd)
           443 MiB available memory on the node where the printing process lives
------------------
     ethr =  1.09E-09,  avg # of iterations =  4.0

     negative rho (up, down):  3.282E-01 0.000E+00

     total cpu time spent up to now is       11.8 secs

     total energy              =      -2.24613121 Ry
     estimated scf accuracy    <       0.00000007 Ry

     iteration # 50     ecut=    10.00 Ry     beta= 0.70
     Davidson diagonalization with overlap

---- Real-time Memory Report at c_bands before calling an iterative solver
           130 MiB given to the printing process from OS
             0 MiB allocation reported by mallinfo(arena+hblkhd)
           443 MiB available memory on the node where the printing process lives
------------------
     ethr =  1.09E-09,  avg # of iterations =  4.0

     negative rho (up, down):  3.282E-01 0.000E+00

     total cpu time spent up to now is       12.1 secs

     total energy              =      -2.24619341 Ry
     estimated scf accuracy    <       0.00000006 Ry

     iteration # 51     ecut=    10.00 Ry     beta= 0.70
     Davidson diagonalization with overlap

---- Real-time Memory Report at c_bands before calling an iterative solver
           130 MiB given to the printing process from OS
             0 MiB allocation reported by mallinfo(arena+hblkhd)
           443 MiB available memory on the node where the printing process lives
------------------
     ethr =  1.09E-09,  avg # of iterations =  4.0

     negative rho (up, down):  3.282E-01 0.000E+00

     total cpu time spent up to now is       12.4 secs

     total energy              =      -2.24619431 Ry
     estimated scf accuracy    <       0.00000011 Ry

     iteration # 52     ecut=    10.00 Ry     beta= 0.70
     Davidson diagonalization with overlap

---- Real-time Memory Report at c_bands before calling an iterative solver
           130 MiB given to the printing process from OS
             0 MiB allocation reported by mallinfo(arena+hblkhd)
           443 MiB available memory on the node where the printing process lives
------------------
     ethr =  1.09E-09,  avg # of iterations =  3.0

     negative rho (up, down):  3.282E-01 0.000E+00

     total cpu time spent up to now is       12.6 secs

     total energy              =      -2.24616783 Ry
     estimated scf accuracy    <       0.00000005 Ry

     iteration # 53     ecut=    10.00 Ry     beta= 0.70
     Davidson diagonalization with overlap

---- Real-time Memory Report at c_bands before calling an iterative solver
           130 MiB given to the printing process from OS
             0 MiB allocation reported by mallinfo(arena+hblkhd)
           443 MiB available memory on the node where the printing process lives
------------------
     ethr =  1.09E-09,  avg # of iterations =  4.0

     negative rho (up, down):  3.283E-01 0.000E+00

     total cpu time spent up to now is       12.8 secs

     total energy              =      -2.24607375 Ry
     estimated scf accuracy    <       0.00000011 Ry

     iteration # 54     ecut=    10.00 Ry     beta= 0.70
     Davidson diagonalization with overlap

---- Real-time Memory Report at c_bands before calling an iterative solver
           130 MiB given to the printing process from OS
             0 MiB allocation reported by mallinfo(arena+hblkhd)
           443 MiB available memory on the node where the printing process lives
------------------
     ethr =  1.09E-09,  avg # of iterations =  5.0

     negative rho (up, down):  3.283E-01 0.000E+00

     total cpu time spent up to now is       13.1 secs

     total energy              =      -2.24611432 Ry
     estimated scf accuracy    <       0.00000019 Ry

     iteration # 55     ecut=    10.00 Ry     beta= 0.70
     Davidson diagonalization with overlap

---- Real-time Memory Report at c_bands before calling an iterative solver
           130 MiB given to the printing process from OS
             0 MiB allocation reported by mallinfo(arena+hblkhd)
           443 MiB available memory on the node where the printing process lives
------------------
     ethr =  1.09E-09,  avg # of iterations =  3.0

     negative rho (up, down):  3.283E-01 0.000E+00

     total cpu time spent up to now is       13.3 secs

     total energy              =      -2.24605523 Ry
     estimated scf accuracy    <       0.00000010 Ry

     iteration # 56     ecut=    10.00 Ry     beta= 0.70
     Davidson diagonalization with overlap

---- Real-time Memory Report at c_bands before calling an iterative solver
           130 MiB given to the printing process from OS
             0 MiB allocation reported by mallinfo(arena+hblkhd)
           443 MiB available memory on the node where the printing process lives
------------------
     ethr =  1.09E-09,  avg # of iterations =  4.0

     negative rho (up, down):  3.283E-01 0.000E+00

     total cpu time spent up to now is       13.6 secs

     total energy              =      -2.24601959 Ry
     estimated scf accuracy    <       0.00000002 Ry

     iteration # 57     ecut=    10.00 Ry     beta= 0.70
     Davidson diagonalization with overlap

---- Real-time Memory Report at c_bands before calling an iterative solver
           130 MiB given to the printing process from OS
             0 MiB allocation reported by mallinfo(arena+hblkhd)
           443 MiB available memory on the node where the printing process lives
------------------
     ethr =  8.29E-10,  avg # of iterations =  4.0

     negative rho (up, down):  3.283E-01 0.000E+00

     total cpu time spent up to now is       13.8 secs

     total energy              =      -2.24602314 Ry
     estimated scf accuracy    <       0.00000014 Ry

     iteration # 58     ecut=    10.00 Ry     beta= 0.70
     Davidson diagonalization with overlap

---- Real-time Memory Report at c_bands before calling an iterative solver
           130 MiB given to the printing process from OS
             0 MiB allocation reported by mallinfo(arena+hblkhd)
           443 MiB available memory on the node where the printing process lives
------------------
     ethr =  8.29E-10,  avg # of iterations =  2.0

     negative rho (up, down):  3.283E-01 0.000E+00

     total cpu time spent up to now is       14.1 secs

     total energy              =      -2.24611026 Ry
     estimated scf accuracy    <       0.00000013 Ry

     iteration # 59     ecut=    10.00 Ry     beta= 0.70
     Davidson diagonalization with overlap

---- Real-time Memory Report at c_bands before calling an iterative solver
           130 MiB given to the printing process from OS
             0 MiB allocation reported by mallinfo(arena+hblkhd)
           443 MiB available memory on the node where the printing process lives
------------------
     ethr =  8.29E-10,  avg # of iterations =  5.0

     negative rho (up, down):  3.282E-01 0.000E+00

     total cpu time spent up to now is       14.3 secs

     total energy              =      -2.24615279 Ry
     estimated scf accuracy    <       0.00000015 Ry

     iteration # 60     ecut=    10.00 Ry     beta= 0.70
     Davidson diagonalization with overlap

---- Real-time Memory Report at c_bands before calling an iterative solver
           130 MiB given to the printing process from OS
             0 MiB allocation reported by mallinfo(arena+hblkhd)
           443 MiB available memory on the node where the printing process lives
------------------
     ethr =  8.29E-10,  avg # of iterations =  5.0

     negative rho (up, down):  3.283E-01 0.000E+00

     total cpu time spent up to now is       14.5 secs

     total energy              =      -2.24603130 Ry
     estimated scf accuracy    <       0.00000022 Ry

     iteration # 61     ecut=    10.00 Ry     beta= 0.70
     Davidson diagonalization with overlap

---- Real-time Memory Report at c_bands before calling an iterative solver
           130 MiB given to the printing process from OS
             0 MiB allocation reported by mallinfo(arena+hblkhd)
           443 MiB available memory on the node where the printing process lives
------------------
     ethr =  8.29E-10,  avg # of iterations =  5.0

     negative rho (up, down):  3.283E-01 0.000E+00

     total cpu time spent up to now is       14.8 secs

     total energy              =      -2.24605502 Ry
     estimated scf accuracy    <       0.00000002 Ry

     iteration # 62     ecut=    10.00 Ry     beta= 0.70
     Davidson diagonalization with overlap

---- Real-time Memory Report at c_bands before calling an iterative solver
           130 MiB given to the printing process from OS
             0 MiB allocation reported by mallinfo(arena+hblkhd)
           443 MiB available memory on the node where the printing process lives
------------------
     ethr =  8.29E-10,  avg # of iterations =  3.0

     negative rho (up, down):  3.283E-01 0.000E+00

     total cpu time spent up to now is       15.0 secs

     total energy              =      -2.24608309 Ry
     estimated scf accuracy    <       0.00000001 Ry

     iteration # 63     ecut=    10.00 Ry     beta= 0.70
     Davidson diagonalization with overlap

---- Real-time Memory Report at c_bands before calling an iterative solver
           130 MiB given to the printing process from OS
             0 MiB allocation reported by mallinfo(arena+hblkhd)
           443 MiB available memory on the node where the printing process lives
------------------
     ethr =  6.33E-10,  avg # of iterations =  4.0

     negative rho (up, down):  3.283E-01 0.000E+00

     total cpu time spent up to now is       15.2 secs

     total energy              =      -2.24608686 Ry
     estimated scf accuracy    <       0.00000008 Ry

     iteration # 64     ecut=    10.00 Ry     beta= 0.70
     Davidson diagonalization with overlap

---- Real-time Memory Report at c_bands before calling an iterative solver
           130 MiB given to the printing process from OS
             0 MiB allocation reported by mallinfo(arena+hblkhd)
           443 MiB available memory on the node where the printing process lives
------------------
     ethr =  6.33E-10,  avg # of iterations =  2.0

     negative rho (up, down):  3.283E-01 0.000E+00

     total cpu time spent up to now is       15.5 secs

     total energy              =      -2.24606018 Ry
     estimated scf accuracy    <       0.00000008 Ry

     iteration # 65     ecut=    10.00 Ry     beta= 0.70
     Davidson diagonalization with overlap

---- Real-time Memory Report at c_bands before calling an iterative solver
           130 MiB given to the printing process from OS
             0 MiB allocation reported by mallinfo(arena+hblkhd)
           443 MiB available memory on the node where the printing process lives
------------------
     ethr =  6.33E-10,  avg # of iterations =  5.0

     negative rho (up, down):  3.283E-01 0.000E+00

     total cpu time spent up to now is       15.7 secs

     total energy              =      -2.24612077 Ry
     estimated scf accuracy    <       0.00000009 Ry

     iteration # 66     ecut=    10.00 Ry     beta= 0.70
     Davidson diagonalization with overlap

---- Real-time Memory Report at c_bands before calling an iterative solver
           130 MiB given to the printing process from OS
             0 MiB allocation reported by mallinfo(arena+hblkhd)
           443 MiB available memory on the node where the printing process lives
------------------
     ethr =  6.33E-10,  avg # of iterations =  5.0

     negative rho (up, down):  3.283E-01 0.000E+00

     total cpu time spent up to now is       16.0 secs

     total energy              =      -2.24608009 Ry
     estimated scf accuracy    <       0.00000031 Ry

     iteration # 67     ecut=    10.00 Ry     beta= 0.70
     Davidson diagonalization with overlap

---- Real-time Memory Report at c_bands before calling an iterative solver
           130 MiB given to the printing process from OS
             0 MiB allocation reported by mallinfo(arena+hblkhd)
           443 MiB available memory on the node where the printing process lives
------------------
     ethr =  6.33E-10,  avg # of iterations =  4.0

     negative rho (up, down):  3.283E-01 0.000E+00

     total cpu time spent up to now is       16.2 secs

     total energy              =      -2.24610265 Ry
     estimated scf accuracy    <       0.00000017 Ry

     iteration # 68     ecut=    10.00 Ry     beta= 0.70
     Davidson diagonalization with overlap

---- Real-time Memory Report at c_bands before calling an iterative solver
           130 MiB given to the printing process from OS
             0 MiB allocation reported by mallinfo(arena+hblkhd)
           443 MiB available memory on the node where the printing process lives
------------------
     ethr =  6.33E-10,  avg # of iterations =  3.0

     negative rho (up, down):  3.282E-01 0.000E+00

     total cpu time spent up to now is       16.4 secs

     total energy              =      -2.24612784 Ry
     estimated scf accuracy    <       0.00000014 Ry

     iteration # 69     ecut=    10.00 Ry     beta= 0.70
     Davidson diagonalization with overlap

---- Real-time Memory Report at c_bands before calling an iterative solver
           130 MiB given to the printing process from OS
             0 MiB allocation reported by mallinfo(arena+hblkhd)
           443 MiB available memory on the node where the printing process lives
------------------
     ethr =  6.33E-10,  avg # of iterations =  5.0

     negative rho (up, down):  3.284E-01 0.000E+00

     total cpu time spent up to now is       16.7 secs

     total energy              =      -2.24601919 Ry
     estimated scf accuracy    <       0.00000019 Ry

     iteration # 70     ecut=    10.00 Ry     beta= 0.70
     Davidson diagonalization with overlap

---- Real-time Memory Report at c_bands before calling an iterative solver
           130 MiB given to the printing process from OS
             0 MiB allocation reported by mallinfo(arena+hblkhd)
           443 MiB available memory on the node where the printing process lives
------------------
     ethr =  6.33E-10,  avg # of iterations =  4.0

     negative rho (up, down):  3.284E-01 0.000E+00

     total cpu time spent up to now is       16.9 secs

     total energy              =      -2.24599852 Ry
     estimated scf accuracy    <       0.00000008 Ry

     iteration # 71     ecut=    10.00 Ry     beta= 0.70
     Davidson diagonalization with overlap

---- Real-time Memory Report at c_bands before calling an iterative solver
           130 MiB given to the printing process from OS
             0 MiB allocation reported by mallinfo(arena+hblkhd)
           443 MiB available memory on the node where the printing process lives
------------------
     ethr =  6.33E-10,  avg # of iterations =  4.0

     negative rho (up, down):  3.284E-01 0.000E+00

     total cpu time spent up to now is       17.1 secs

     total energy              =      -2.24600073 Ry
     estimated scf accuracy    <       0.00000006 Ry

     iteration # 72     ecut=    10.00 Ry     beta= 0.70
     Davidson diagonalization with overlap

---- Real-time Memory Report at c_bands before calling an iterative solver
           130 MiB given to the printing process from OS
             0 MiB allocation reported by mallinfo(arena+hblkhd)
           443 MiB available memory on the node where the printing process lives
------------------
     ethr =  6.33E-10,  avg # of iterations =  2.0

     negative rho (up, down):  3.284E-01 0.000E+00

     total cpu time spent up to now is       17.3 secs

     total energy              =      -2.24599661 Ry
     estimated scf accuracy    <       0.00000006 Ry

     iteration # 73     ecut=    10.00 Ry     beta= 0.70
     Davidson diagonalization with overlap

---- Real-time Memory Report at c_bands before calling an iterative solver
           130 MiB given to the printing process from OS
             0 MiB allocation reported by mallinfo(arena+hblkhd)
           443 MiB available memory on the node where the printing process lives
------------------
     ethr =  6.33E-10,  avg # of iterations =  3.0

     negative rho (up, down):  3.284E-01 0.000E+00

     total cpu time spent up to now is       17.6 secs

     total energy              =      -2.24601195 Ry
     estimated scf accuracy    <       0.00000006 Ry

     iteration # 74     ecut=    10.00 Ry     beta= 0.70
     Davidson diagonalization with overlap

---- Real-time Memory Report at c_bands before calling an iterative solver
           130 MiB given to the printing process from OS
             0 MiB allocation reported by mallinfo(arena+hblkhd)
           443 MiB available memory on the node where the printing process lives
------------------
     ethr =  6.33E-10,  avg # of iterations =  4.0

     negative rho (up, down):  3.284E-01 0.000E+00

     total cpu time spent up to now is       17.8 secs

     total energy              =      -2.24600435 Ry
     estimated scf accuracy    <       0.00000014 Ry

     iteration # 75     ecut=    10.00 Ry     beta= 0.70
     Davidson diagonalization with overlap

---- Real-time Memory Report at c_bands before calling an iterative solver
           130 MiB given to the printing process from OS
             0 MiB allocation reported by mallinfo(arena+hblkhd)
           443 MiB available memory on the node where the printing process lives
------------------
     ethr =  6.33E-10,  avg # of iterations =  4.0

     negative rho (up, down):  3.283E-01 0.000E+00

     total cpu time spent up to now is       18.0 secs

     total energy              =      -2.24611652 Ry
     estimated scf accuracy    <       0.00000005 Ry

     iteration # 76     ecut=    10.00 Ry     beta= 0.70
     Davidson diagonalization with overlap

---- Real-time Memory Report at c_bands before calling an iterative solver
           130 MiB given to the printing process from OS
             0 MiB allocation reported by mallinfo(arena+hblkhd)
           443 MiB available memory on the node where the printing process lives
------------------
     ethr =  6.33E-10,  avg # of iterations =  5.0

     negative rho (up, down):  3.283E-01 0.000E+00

     total cpu time spent up to now is       18.3 secs

     total energy              =      -2.24606889 Ry
     estimated scf accuracy    <       0.00000023 Ry

     iteration # 77     ecut=    10.00 Ry     beta= 0.70
     Davidson diagonalization with overlap

---- Real-time Memory Report at c_bands before calling an iterative solver
           130 MiB given to the printing process from OS
             0 MiB allocation reported by mallinfo(arena+hblkhd)
           443 MiB available memory on the node where the printing process lives
------------------
     ethr =  6.33E-10,  avg # of iterations =  5.0

     negative rho (up, down):  3.282E-01 0.000E+00

     total cpu time spent up to now is       18.5 secs

     total energy              =      -2.24622871 Ry
     estimated scf accuracy    <       0.00000006 Ry

     iteration # 78     ecut=    10.00 Ry     beta= 0.70
     Davidson diagonalization with overlap

---- Real-time Memory Report at c_bands before calling an iterative solver
           130 MiB given to the printing process from OS
             0 MiB allocation reported by mallinfo(arena+hblkhd)
           443 MiB available memory on the node where the printing process lives
------------------
     ethr =  6.33E-10,  avg # of iterations =  5.0

     negative rho (up, down):  3.283E-01 0.000E+00

     total cpu time spent up to now is       18.8 secs

     total energy              =      -2.24608221 Ry
     estimated scf accuracy    <       0.00000014 Ry

     iteration # 79     ecut=    10.00 Ry     beta= 0.70
     Davidson diagonalization with overlap

---- Real-time Memory Report at c_bands before calling an iterative solver
           130 MiB given to the printing process from OS
             0 MiB allocation reported by mallinfo(arena+hblkhd)
           443 MiB available memory on the node where the printing process lives
------------------
     ethr =  6.33E-10,  avg # of iterations =  5.0

     negative rho (up, down):  3.284E-01 0.000E+00

     total cpu time spent up to now is       19.0 secs

     total energy              =      -2.24601758 Ry
     estimated scf accuracy    <       0.00000009 Ry

     iteration # 80     ecut=    10.00 Ry     beta= 0.70
     Davidson diagonalization with overlap

---- Real-time Memory Report at c_bands before calling an iterative solver
           130 MiB given to the printing process from OS
             0 MiB allocation reported by mallinfo(arena+hblkhd)
           443 MiB available memory on the node where the printing process lives
------------------
     ethr =  6.33E-10,  avg # of iterations =  4.0

     negative rho (up, down):  3.284E-01 0.000E+00

     total cpu time spent up to now is       19.2 secs

     total energy              =      -2.24602326 Ry
     estimated scf accuracy    <       0.00000004 Ry

     iteration # 81     ecut=    10.00 Ry     beta= 0.70
     Davidson diagonalization with overlap

---- Real-time Memory Report at c_bands before calling an iterative solver
           130 MiB given to the printing process from OS
             0 MiB allocation reported by mallinfo(arena+hblkhd)
           443 MiB available memory on the node where the printing process lives
------------------
     ethr =  6.33E-10,  avg # of iterations =  2.0

     negative rho (up, down):  3.283E-01 0.000E+00

     total cpu time spent up to now is       19.4 secs

     total energy              =      -2.24605915 Ry
     estimated scf accuracy    <       0.00000004 Ry

     iteration # 82     ecut=    10.00 Ry     beta= 0.70
     Davidson diagonalization with overlap

---- Real-time Memory Report at c_bands before calling an iterative solver
           130 MiB given to the printing process from OS
             0 MiB allocation reported by mallinfo(arena+hblkhd)
           443 MiB available memory on the node where the printing process lives
------------------
     ethr =  6.33E-10,  avg # of iterations =  4.0

     negative rho (up, down):  3.283E-01 0.000E+00

     total cpu time spent up to now is       19.7 secs

     total energy              =      -2.24602517 Ry
     estimated scf accuracy    <       0.00000007 Ry

     iteration # 83     ecut=    10.00 Ry     beta= 0.70
     Davidson diagonalization with overlap

---- Real-time Memory Report at c_bands before calling an iterative solver
           130 MiB given to the printing process from OS
             0 MiB allocation reported by mallinfo(arena+hblkhd)
           443 MiB available memory on the node where the printing process lives
------------------
     ethr =  6.33E-10,  avg # of iterations =  4.0

     negative rho (up, down):  3.283E-01 0.000E+00

     total cpu time spent up to now is       19.9 secs

     total energy              =      -2.24607172 Ry
     estimated scf accuracy    <       0.00000012 Ry

     iteration # 84     ecut=    10.00 Ry     beta= 0.70
     Davidson diagonalization with overlap

---- Real-time Memory Report at c_bands before calling an iterative solver
           130 MiB given to the printing process from OS
             0 MiB allocation reported by mallinfo(arena+hblkhd)
           443 MiB available memory on the node where the printing process lives
------------------
     ethr =  6.33E-10,  avg # of iterations =  5.0

     negative rho (up, down):  3.284E-01 0.000E+00

     total cpu time spent up to now is       20.2 secs

     total energy              =      -2.24601527 Ry
     estimated scf accuracy    <       0.00000014 Ry

     iteration # 85     ecut=    10.00 Ry     beta= 0.70
     Davidson diagonalization with overlap

---- Real-time Memory Report at c_bands before calling an iterative solver
           130 MiB given to the printing process from OS
             0 MiB allocation reported by mallinfo(arena+hblkhd)
           443 MiB available memory on the node where the printing process lives
------------------
     ethr =  6.33E-10,  avg # of iterations =  5.0

     negative rho (up, down):  3.283E-01 0.000E+00

     total cpu time spent up to now is       20.4 secs

     total energy              =      -2.24608691 Ry
     estimated scf accuracy    <       0.00000024 Ry

     iteration # 86     ecut=    10.00 Ry     beta= 0.70
     Davidson diagonalization with overlap

---- Real-time Memory Report at c_bands before calling an iterative solver
           130 MiB given to the printing process from OS
             0 MiB allocation reported by mallinfo(arena+hblkhd)
           443 MiB available memory on the node where the printing process lives
------------------
     ethr =  6.33E-10,  avg # of iterations =  5.0

     negative rho (up, down):  3.283E-01 0.000E+00

     total cpu time spent up to now is       20.6 secs

     total energy              =      -2.24608043 Ry
     estimated scf accuracy    <       0.00000008 Ry

     iteration # 87     ecut=    10.00 Ry     beta= 0.70
     Davidson diagonalization with overlap

---- Real-time Memory Report at c_bands before calling an iterative solver
           130 MiB given to the printing process from OS
             0 MiB allocation reported by mallinfo(arena+hblkhd)
           443 MiB available memory on the node where the printing process lives
------------------
     ethr =  6.33E-10,  avg # of iterations =  3.0

     negative rho (up, down):  3.283E-01 0.000E+00

     total cpu time spent up to now is       20.9 secs

     total energy              =      -2.24610633 Ry
     estimated scf accuracy    <       0.00000007 Ry

     iteration # 88     ecut=    10.00 Ry     beta= 0.70
     Davidson diagonalization with overlap

---- Real-time Memory Report at c_bands before calling an iterative solver
           130 MiB given to the printing process from OS
             0 MiB allocation reported by mallinfo(arena+hblkhd)
           443 MiB available memory on the node where the printing process lives
------------------
     ethr =  6.33E-10,  avg # of iterations =  3.0

     negative rho (up, down):  3.283E-01 0.000E+00

     total cpu time spent up to now is       21.1 secs

     total energy              =      -2.24610318 Ry
     estimated scf accuracy    <       0.00000006 Ry

     iteration # 89     ecut=    10.00 Ry     beta= 0.70
     Davidson diagonalization with overlap

---- Real-time Memory Report at c_bands before calling an iterative solver
           130 MiB given to the printing process from OS
             0 MiB allocation reported by mallinfo(arena+hblkhd)
           443 MiB available memory on the node where the printing process lives
------------------
     ethr =  6.33E-10,  avg # of iterations =  4.0

     negative rho (up, down):  3.283E-01 0.000E+00

     total cpu time spent up to now is       21.3 secs

     total energy              =      -2.24607856 Ry
     estimated scf accuracy    <       0.00000012 Ry

     iteration # 90     ecut=    10.00 Ry     beta= 0.70
     Davidson diagonalization with overlap

---- Real-time Memory Report at c_bands before calling an iterative solver
           130 MiB given to the printing process from OS
             0 MiB allocation reported by mallinfo(arena+hblkhd)
           443 MiB available memory on the node where the printing process lives
------------------
     ethr =  6.33E-10,  avg # of iterations =  4.0

     negative rho (up, down):  3.283E-01 0.000E+00

     total cpu time spent up to now is       21.6 secs

     total energy              =      -2.24607743 Ry
     estimated scf accuracy    <       0.00000009 Ry

     iteration # 91     ecut=    10.00 Ry     beta= 0.70
     Davidson diagonalization with overlap

---- Real-time Memory Report at c_bands before calling an iterative solver
           130 MiB given to the printing process from OS
             0 MiB allocation reported by mallinfo(arena+hblkhd)
           443 MiB available memory on the node where the printing process lives
------------------
     ethr =  6.33E-10,  avg # of iterations =  2.0

     negative rho (up, down):  3.285E-01 0.000E+00

     total cpu time spent up to now is       21.8 secs

     total energy              =      -2.24596104 Ry
     estimated scf accuracy    <       0.00000007 Ry

     iteration # 92     ecut=    10.00 Ry     beta= 0.70
     Davidson diagonalization with overlap

---- Real-time Memory Report at c_bands before calling an iterative solver
           130 MiB given to the printing process from OS
             0 MiB allocation reported by mallinfo(arena+hblkhd)
           443 MiB available memory on the node where the printing process lives
------------------
     ethr =  6.33E-10,  avg # of iterations =  4.0

     negative rho (up, down):  3.285E-01 0.000E+00

     total cpu time spent up to now is       22.0 secs

     total energy              =      -2.24597605 Ry
     estimated scf accuracy    <       0.00000022 Ry

     iteration # 93     ecut=    10.00 Ry     beta= 0.70
     Davidson diagonalization with overlap

---- Real-time Memory Report at c_bands before calling an iterative solver
           130 MiB given to the printing process from OS
             0 MiB allocation reported by mallinfo(arena+hblkhd)
           443 MiB available memory on the node where the printing process lives
------------------
     ethr =  6.33E-10,  avg # of iterations =  4.0

     negative rho (up, down):  3.284E-01 0.000E+00

     total cpu time spent up to now is       22.2 secs

     total energy              =      -2.24598015 Ry
     estimated scf accuracy    <       0.00000027 Ry

     iteration # 94     ecut=    10.00 Ry     beta= 0.70
     Davidson diagonalization with overlap

---- Real-time Memory Report at c_bands before calling an iterative solver
           130 MiB given to the printing process from OS
             0 MiB allocation reported by mallinfo(arena+hblkhd)
           443 MiB available memory on the node where the printing process lives
------------------
     ethr =  6.33E-10,  avg # of iterations =  4.0

     negative rho (up, down):  3.284E-01 0.000E+00

     total cpu time spent up to now is       22.5 secs

     total energy              =      -2.24599307 Ry
     estimated scf accuracy    <       0.00000044 Ry

     iteration # 95     ecut=    10.00 Ry     beta= 0.70
     Davidson diagonalization with overlap

---- Real-time Memory Report at c_bands before calling an iterative solver
           130 MiB given to the printing process from OS
             0 MiB allocation reported by mallinfo(arena+hblkhd)
           443 MiB available memory on the node where the printing process lives
------------------
     ethr =  6.33E-10,  avg # of iterations =  3.0

     negative rho (up, down):  3.286E-01 0.000E+00

     total cpu time spent up to now is       22.7 secs

     total energy              =      -2.24593661 Ry
     estimated scf accuracy    <       0.00000044 Ry

     iteration # 96     ecut=    10.00 Ry     beta= 0.70
     Davidson diagonalization with overlap

---- Real-time Memory Report at c_bands before calling an iterative solver
           130 MiB given to the printing process from OS
             0 MiB allocation reported by mallinfo(arena+hblkhd)
           443 MiB available memory on the node where the printing process lives
------------------
     ethr =  6.33E-10,  avg # of iterations =  5.0

     negative rho (up, down):  3.285E-01 0.000E+00

     total cpu time spent up to now is       22.9 secs

     total energy              =      -2.24597365 Ry
     estimated scf accuracy    <       0.00000038 Ry

     iteration # 97     ecut=    10.00 Ry     beta= 0.70
     Davidson diagonalization with overlap

---- Real-time Memory Report at c_bands before calling an iterative solver
           130 MiB given to the printing process from OS
             0 MiB allocation reported by mallinfo(arena+hblkhd)
           443 MiB available memory on the node where the printing process lives
------------------
     ethr =  6.33E-10,  avg # of iterations =  4.0

     negative rho (up, down):  3.284E-01 0.000E+00

     total cpu time spent up to now is       23.2 secs

     total energy              =      -2.24602154 Ry
     estimated scf accuracy    <       0.00000016 Ry

     iteration # 98     ecut=    10.00 Ry     beta= 0.70
     Davidson diagonalization with overlap

---- Real-time Memory Report at c_bands before calling an iterative solver
           130 MiB given to the printing process from OS
             0 MiB allocation reported by mallinfo(arena+hblkhd)
           443 MiB available memory on the node where the printing process lives
------------------
     ethr =  6.33E-10,  avg # of iterations =  4.0

     negative rho (up, down):  3.284E-01 0.000E+00

     total cpu time spent up to now is       23.4 secs

     total energy              =      -2.24596538 Ry
     estimated scf accuracy    <       0.00000020 Ry

     iteration # 99     ecut=    10.00 Ry     beta= 0.70
     Davidson diagonalization with overlap

---- Real-time Memory Report at c_bands before calling an iterative solver
           130 MiB given to the printing process from OS
             0 MiB allocation reported by mallinfo(arena+hblkhd)
           443 MiB available memory on the node where the printing process lives
------------------
     ethr =  6.33E-10,  avg # of iterations =  4.0

     negative rho (up, down):  3.283E-01 0.000E+00

     total cpu time spent up to now is       23.6 secs

     total energy              =      -2.24607289 Ry
     estimated scf accuracy    <       0.00000049 Ry

     iteration #100     ecut=    10.00 Ry     beta= 0.70
     Davidson diagonalization with overlap

---- Real-time Memory Report at c_bands before calling an iterative solver
           130 MiB given to the printing process from OS
             0 MiB allocation reported by mallinfo(arena+hblkhd)
           443 MiB available memory on the node where the printing process lives
------------------
     ethr =  6.33E-10,  avg # of iterations =  4.0

     negative rho (up, down):  3.282E-01 0.000E+00

     total cpu time spent up to now is       23.9 secs

     total energy              =      -2.24617978 Ry
     estimated scf accuracy    <       0.00000010 Ry

     End of self-consistent calculation

     convergence NOT achieved after 100 iterations: stopping

     Writing config to output data dir ./.save/
     Message from routine punch:
     wavefunctions written to file

     init_run     :      0.19s CPU      0.23s WALL (       1 calls)
     electrons    :     23.54s CPU     23.63s WALL (       1 calls)

     Called by init_run:
     wfcinit      :      0.01s CPU      0.02s WALL (       1 calls)
     wfcinit:atom :      0.00s CPU      0.00s WALL (       1 calls)
     wfcinit:wfcr :      0.01s CPU      0.01s WALL (       1 calls)
     potinit      :      0.12s CPU      0.15s WALL (       1 calls)
     hinit0       :      0.01s CPU      0.01s WALL (       1 calls)

     Called by electrons:
     c_bands      :      5.19s CPU      5.21s WALL (     100 calls)
     sum_band     :      2.52s CPU      2.54s WALL (     100 calls)
     v_of_rho     :     12.23s CPU     12.27s WALL (     101 calls)
     v_h          :      0.67s CPU      0.67s WALL (     101 calls)
     v_xc         :     11.56s CPU     11.60s WALL (     101 calls)
     newd         :      0.84s CPU      0.84s WALL (     101 calls)
     mix_rho      :      2.63s CPU      2.65s WALL (     100 calls)

     Called by c_bands:
     init_us_2    :      0.07s CPU      0.08s WALL (     201 calls)
     init_us_2:cp :      0.07s CPU      0.08s WALL (     201 calls)
     cegterg      :      5.13s CPU      5.15s WALL (     100 calls)

     Called by sum_band:
     sum_band:wei :      0.00s CPU      0.00s WALL (     100 calls)
     sum_band:loo :      0.69s CPU      0.71s WALL (     100 calls)
     sum_band:buf :      0.00s CPU      0.00s WALL (     100 calls)
     sum_band:ini :      0.04s CPU      0.04s WALL (     100 calls)
     sum_band:cal :      0.01s CPU      0.01s WALL (     100 calls)
     sum_band:bec :      0.00s CPU      0.00s WALL (     100 calls)
     addusdens    :      0.22s CPU      0.23s WALL (     100 calls)
     addusd:skk   :      0.07s CPU      0.07s WALL (     100 calls)
     addusd:dgemm :      0.05s CPU      0.05s WALL (     100 calls)
     addusd:qvan2 :      0.05s CPU      0.06s WALL (     100 calls)

     Called by *egterg:
     cdiaghg      :      0.01s CPU      0.01s WALL (     477 calls)
     cegterg:over :      0.07s CPU      0.07s WALL (     377 calls)
     cegterg:upda :      0.05s CPU      0.06s WALL (     377 calls)
     cegterg:last :      0.11s CPU      0.11s WALL (     298 calls)
     h_psi        :      4.77s CPU      4.80s WALL (     478 calls)
     s_psi        :      0.03s CPU      0.03s WALL (     478 calls)
     g_psi        :      0.03s CPU      0.03s WALL (     377 calls)

     Called by h_psi:
     h_psi:calbec :      0.04s CPU      0.04s WALL (     478 calls)
     vloc_psi     :      4.69s CPU      4.71s WALL (     478 calls)
     add_vuspsi   :      0.03s CPU      0.03s WALL (     478 calls)

     General routines
     calbec       :      0.04s CPU      0.04s WALL (     578 calls)
     fft          :      5.74s CPU      5.75s WALL (    1111 calls)
     ffts         :      0.52s CPU      0.52s WALL (     100 calls)
     fftw         :      4.83s CPU      4.86s WALL (    1676 calls)
     davcio       :      0.00s CPU      0.01s WALL (      19 calls)


     PWSCF        :     23.75s CPU     23.89s WALL


   This run was terminated on:   2:57: 5  28Feb2022            

=------------------------------------------------------------------------------=
   JOB DONE.
=------------------------------------------------------------------------------=
