
     Program PWSCF v.7.0 starts on 28Feb2022 at 22:20:46 

     This program is part of the open-source Quantum ESPRESSO suite
     for quantum simulation of materials; please cite
         "P. Giannozzi et al., J. Phys.:Condens. Matter 21 395502 (2009);
         "P. Giannozzi et al., J. Phys.:Condens. Matter 29 465901 (2017);
         "P. Giannozzi et al., J. Chem. Phys. 152 154105 (2020);
          URL http://www.quantum-espresso.org", 
     in publications or presentations arising from this work. More details at
     http://www.quantum-espresso.org/quote

     Serial version
     1280 MiB available memory on the printing compute node when the environment starts

     Waiting for input...
     Reading input from standard input

     Current dimensions of program PWSCF are:
     Max number of different atomic species (ntypx) = 10
     Max number of k-points (npk) =  40000
     Max angular momentum in pseudopotentials (lmaxx) =  4

    ============================================================
    |  pseudopotential report for atomic species:  1           |
    |        pseudo potential version   7   3   2              |
    ------------------------------------------------------------
    |  hydrogen            PBE                  exchange-corr  |
    |  z =   1.    zv( 1) =   1.    exfact =   5.00000         |
    |  ifpcor =  0           atomic energy =  -0.91772 Ry      |
    |  index    orbital      occupation    energy              |
    |    1        100           1.00       -0.48               |
    |  rinner =  0.5000                                        |
    |    new generation scheme:                                |
    |    nbeta =  1     kkbeta =  271     rcloc =    0.6000    |
    |    ibeta    l     epsilon   rcut                         |
    |      1       0      -0.48   0.80                         |
    ============================================================

     IMPORTANT: XC functional enforced from input :
     Exchange-correlation= BLYP
                           (   1   3   1   3   0   0   0)
     Any further DFT definition will be discarded
     Please, verify this is what you really want


     G-vector sticks info
     --------------------
     sticks:   dense  smooth     PW     G-vecs:    dense   smooth      PW
     Sum        4281    4281   1185               211657   211657   30551

     Using Slab Decomposition



     bravais-lattice index     =            1
     lattice parameter (alat)  =      30.0000  a.u.
     unit-cell volume          =   27000.0000 (a.u.)^3
     number of atoms/cell      =            2
     number of atomic types    =            1
     number of electrons       =         2.00
     number of Kohn-Sham states=            2
     kinetic-energy cutoff     =      15.0000  Ry
     charge density cutoff     =      60.0000  Ry
     scf convergence threshold =      1.0E-08
     mixing beta               =       0.7000
     number of iterations used =            8  plain     mixing
     Exchange-correlation= BLYP
                           (   1   3   1   3   0   0   0)

     celldm(1)=  30.000000  celldm(2)=   0.000000  celldm(3)=   0.000000
     celldm(4)=   0.000000  celldm(5)=   0.000000  celldm(6)=   0.000000

     crystal axes: (cart. coord. in units of alat)
               a(1) = (   1.000000   0.000000   0.000000 )  
               a(2) = (   0.000000   1.000000   0.000000 )  
               a(3) = (   0.000000   0.000000   1.000000 )  

     reciprocal axes: (cart. coord. in units 2 pi/alat)
               b(1) = (  1.000000  0.000000  0.000000 )  
               b(2) = (  0.000000  1.000000  0.000000 )  
               b(3) = (  0.000000  0.000000  1.000000 )  


     PseudoPot. # 1 for hy read from file:
     /root/q-e/pseudo/H_US.van
     MD5 check sum: a9a9bfe98ff56cf4de197d71fc46bb44
     Pseudo is Ultrasoft, Zval =  1.0
     Generated by Vanderbilt code, v. 7.3.2
     Using radial grid of  399 points,  1 beta functions with: 
                l(1) =   0
     Q(r) pseudized with  8 coefficients,  rinner =    0.500

     atomic species   valence    mass     pseudopotential
        H              1.00     1.00784     hy( 1.00)

      8 Sym. Ops. (no inversion) found


                                    s                        frac. trans.

      isym =  1     identity                                     

 cryst.   s( 1) = (     1          0          0      )
                  (     0          1          0      )
                  (     0          0          1      )

 cart.    s( 1) = (  1.0000000  0.0000000  0.0000000 )
                  (  0.0000000  1.0000000  0.0000000 )
                  (  0.0000000  0.0000000  1.0000000 )


      isym =  2     180 deg rotation - cart. axis [1,0,0]        

 cryst.   s( 2) = (     1          0          0      )
                  (     0         -1          0      )
                  (     0          0         -1      )

 cart.    s( 2) = (  1.0000000  0.0000000  0.0000000 )
                  (  0.0000000 -1.0000000  0.0000000 )
                  (  0.0000000  0.0000000 -1.0000000 )


      isym =  3      90 deg rotation - cart. axis [-1,0,0]       

 cryst.   s( 3) = (     1          0          0      )
                  (     0          0         -1      )
                  (     0          1          0      )

 cart.    s( 3) = (  1.0000000  0.0000000  0.0000000 )
                  (  0.0000000  0.0000000  1.0000000 )
                  (  0.0000000 -1.0000000  0.0000000 )


      isym =  4      90 deg rotation - cart. axis [1,0,0]        

 cryst.   s( 4) = (     1          0          0      )
                  (     0          0          1      )
                  (     0         -1          0      )

 cart.    s( 4) = (  1.0000000  0.0000000  0.0000000 )
                  (  0.0000000  0.0000000 -1.0000000 )
                  (  0.0000000  1.0000000  0.0000000 )


      isym =  5     inv. 180 deg rotation - cart. axis [0,0,1]   

 cryst.   s( 5) = (     1          0          0      )
                  (     0          1          0      )
                  (     0          0         -1      )

 cart.    s( 5) = (  1.0000000  0.0000000  0.0000000 )
                  (  0.0000000  1.0000000  0.0000000 )
                  (  0.0000000  0.0000000 -1.0000000 )


      isym =  6     inv. 180 deg rotation - cart. axis [0,1,0]   

 cryst.   s( 6) = (     1          0          0      )
                  (     0         -1          0      )
                  (     0          0          1      )

 cart.    s( 6) = (  1.0000000  0.0000000  0.0000000 )
                  (  0.0000000 -1.0000000  0.0000000 )
                  (  0.0000000  0.0000000  1.0000000 )


      isym =  7     inv. 180 deg rotation - cart. axis [0,1,1]   

 cryst.   s( 7) = (     1          0          0      )
                  (     0          0         -1      )
                  (     0         -1          0      )

 cart.    s( 7) = (  1.0000000  0.0000000  0.0000000 )
                  (  0.0000000  0.0000000 -1.0000000 )
                  (  0.0000000 -1.0000000  0.0000000 )


      isym =  8     inv. 180 deg rotation - cart. axis [0,1,-1]  

 cryst.   s( 8) = (     1          0          0      )
                  (     0          0          1      )
                  (     0          1          0      )

 cart.    s( 8) = (  1.0000000  0.0000000  0.0000000 )
                  (  0.0000000  0.0000000  1.0000000 )
                  (  0.0000000  1.0000000  0.0000000 )


     point group C_4v (4mm) 
     there are  5 classes
     the character table:

       E     2C4   C2    2s_v  2s_d 
A_1    1.00  1.00  1.00  1.00  1.00
A_2    1.00  1.00  1.00 -1.00 -1.00
B_1    1.00 -1.00  1.00  1.00 -1.00
B_2    1.00 -1.00  1.00 -1.00  1.00
E      2.00  0.00 -2.00  0.00  0.00

     the symmetry operations in each class and the name of the first element:

     E        1
          identity                                               
     2C4      3    4
           90 deg rotation - cart. axis [-1,0,0]                 
     C2       2
          180 deg rotation - cart. axis [1,0,0]                  
     2s_v     5    6
          inv. 180 deg rotation - cart. axis [0,0,1]             
     2s_d     7    8
          inv. 180 deg rotation - cart. axis [0,1,1]             

   Cartesian axes

     site n.     atom                  positions (alat units)
         1           H   tau(   1) = (   0.0000000   0.0000000   0.0000000  )
         2           H   tau(   2) = (   0.0314954   0.0000000   0.0000000  )

   Crystallographic axes

     site n.     atom                  positions (cryst. coord.)
         1           H   tau(   1) = (  0.0000000  0.0000000  0.0000000  )
         2           H   tau(   2) = (  0.0314954  0.0000000  0.0000000  )

     number of k points=     1
                       cart. coord. in units 2pi/alat
        k(    1) = (  -0.5000000  -0.5000000  -0.5000000), wk =   2.0000000

                       cryst. coord.
        k(    1) = (  -0.5000000  -0.5000000  -0.5000000), wk =   2.0000000

     Dense  grid:   211657 G-vectors     FFT dimensions: (  75,  75,  75)

     Dynamical RAM for                 wfc:       0.81 MB

     Dynamical RAM for     wfc (w. buffer):       0.81 MB

     Dynamical RAM for           str. fact:       3.23 MB

     Dynamical RAM for           local pot:       0.00 MB

     Dynamical RAM for          nlocal pot:       0.81 MB

     Dynamical RAM for                qrad:       0.01 MB

     Dynamical RAM for          rho,v,vnew:      19.34 MB

     Dynamical RAM for               rhoin:       6.45 MB

     Dynamical RAM for            rho*nmix:      51.67 MB

     Dynamical RAM for           G-vectors:      13.73 MB

     Dynamical RAM for          h,s,v(r/c):       0.00 MB

     Dynamical RAM for          <psi|beta>:       0.00 MB

     Dynamical RAM for                 psi:       1.62 MB

     Dynamical RAM for                hpsi:       1.62 MB

     Dynamical RAM for                spsi:       1.62 MB

     Dynamical RAM for      wfcinit/wfcrot:       1.62 MB

     Dynamical RAM for           addusdens:      19.38 MB

     Estimated static dynamical RAM per process >      66.92 MB

     Estimated max dynamical RAM per process >     137.98 MB

     Initial potential from superposition of free atoms

     starting charge       2.0000, renormalised to       2.0000

     negative rho (up, down):  1.080E-01 0.000E+00
     Starting wfcs are    2 randomized atomic wfcs

     total cpu time spent up to now is        0.4 secs

     Self-consistent Calculation

     iteration #  1     ecut=    15.00 Ry     beta= 0.70
     Davidson diagonalization with overlap

---- Real-time Memory Report at c_bands before calling an iterative solver
           123 MiB given to the printing process from OS
             0 MiB allocation reported by mallinfo(arena+hblkhd)
          1198 MiB available memory on the node where the printing process lives
------------------
     ethr =  1.00E-02,  avg # of iterations =  7.0

     negative rho (up, down):  2.305E-01 0.000E+00

     total cpu time spent up to now is        0.9 secs

     total energy              =      -2.12150645 Ry
     estimated scf accuracy    <       0.23529903 Ry

     iteration #  2     ecut=    15.00 Ry     beta= 0.70
     Davidson diagonalization with overlap

---- Real-time Memory Report at c_bands before calling an iterative solver
           152 MiB given to the printing process from OS
             0 MiB allocation reported by mallinfo(arena+hblkhd)
          1139 MiB available memory on the node where the printing process lives
------------------
     ethr =  1.00E-02,  avg # of iterations =  1.0

     negative rho (up, down):  2.616E-01 0.000E+00

     total cpu time spent up to now is        1.2 secs

     total energy              =      -2.12078837 Ry
     estimated scf accuracy    <       0.00326254 Ry

     iteration #  3     ecut=    15.00 Ry     beta= 0.70
     Davidson diagonalization with overlap

---- Real-time Memory Report at c_bands before calling an iterative solver
           158 MiB given to the printing process from OS
             0 MiB allocation reported by mallinfo(arena+hblkhd)
          1133 MiB available memory on the node where the printing process lives
------------------
     ethr =  1.63E-04,  avg # of iterations =  7.0

     negative rho (up, down):  2.647E-01 0.000E+00

     total cpu time spent up to now is        1.7 secs

     total energy              =      -2.11976805 Ry
     estimated scf accuracy    <       0.00001469 Ry

     iteration #  4     ecut=    15.00 Ry     beta= 0.70
     Davidson diagonalization with overlap

---- Real-time Memory Report at c_bands before calling an iterative solver
           165 MiB given to the printing process from OS
             0 MiB allocation reported by mallinfo(arena+hblkhd)
          1126 MiB available memory on the node where the printing process lives
------------------
     ethr =  7.35E-07,  avg # of iterations =  6.0

     negative rho (up, down):  2.655E-01 0.000E+00

     total cpu time spent up to now is        2.1 secs

     total energy              =      -2.11924670 Ry
     estimated scf accuracy    <       0.00000078 Ry

     iteration #  5     ecut=    15.00 Ry     beta= 0.70
     Davidson diagonalization with overlap

---- Real-time Memory Report at c_bands before calling an iterative solver
           171 MiB given to the printing process from OS
             0 MiB allocation reported by mallinfo(arena+hblkhd)
          1120 MiB available memory on the node where the printing process lives
------------------
     ethr =  3.91E-08,  avg # of iterations =  3.0

     negative rho (up, down):  2.655E-01 0.000E+00

     total cpu time spent up to now is        2.5 secs

     total energy              =      -2.11935012 Ry
     estimated scf accuracy    <       0.00000011 Ry

     iteration #  6     ecut=    15.00 Ry     beta= 0.70
     Davidson diagonalization with overlap

---- Real-time Memory Report at c_bands before calling an iterative solver
           178 MiB given to the printing process from OS
             0 MiB allocation reported by mallinfo(arena+hblkhd)
          1114 MiB available memory on the node where the printing process lives
------------------
     ethr =  5.63E-09,  avg # of iterations =  4.0

     negative rho (up, down):  2.660E-01 0.000E+00

     total cpu time spent up to now is        2.9 secs

     total energy              =      -2.11893954 Ry
     estimated scf accuracy    <       0.00000067 Ry

     iteration #  7     ecut=    15.00 Ry     beta= 0.70
     Davidson diagonalization with overlap

---- Real-time Memory Report at c_bands before calling an iterative solver
           184 MiB given to the printing process from OS
             0 MiB allocation reported by mallinfo(arena+hblkhd)
          1107 MiB available memory on the node where the printing process lives
------------------
     ethr =  5.63E-09,  avg # of iterations =  4.0

     negative rho (up, down):  2.658E-01 0.000E+00

     total cpu time spent up to now is        3.3 secs

     total energy              =      -2.11904499 Ry
     estimated scf accuracy    <       0.00000037 Ry

     iteration #  8     ecut=    15.00 Ry     beta= 0.70
     Davidson diagonalization with overlap

---- Real-time Memory Report at c_bands before calling an iterative solver
           191 MiB given to the printing process from OS
             0 MiB allocation reported by mallinfo(arena+hblkhd)
          1101 MiB available memory on the node where the printing process lives
------------------
     ethr =  5.63E-09,  avg # of iterations =  4.0

     negative rho (up, down):  2.655E-01 0.000E+00

     total cpu time spent up to now is        3.8 secs

     total energy              =      -2.11905513 Ry
     estimated scf accuracy    <       0.00000597 Ry

     iteration #  9     ecut=    15.00 Ry     beta= 0.70
     Davidson diagonalization with overlap

---- Real-time Memory Report at c_bands before calling an iterative solver
           197 MiB given to the printing process from OS
             0 MiB allocation reported by mallinfo(arena+hblkhd)
          1094 MiB available memory on the node where the printing process lives
------------------
     ethr =  5.63E-09,  avg # of iterations =  4.0

     negative rho (up, down):  2.652E-01 0.000E+00

     total cpu time spent up to now is        4.2 secs

     total energy              =      -2.11950955 Ry
     estimated scf accuracy    <       0.00000083 Ry

     iteration # 10     ecut=    15.00 Ry     beta= 0.70
     Davidson diagonalization with overlap

---- Real-time Memory Report at c_bands before calling an iterative solver
           204 MiB given to the printing process from OS
             0 MiB allocation reported by mallinfo(arena+hblkhd)
          1088 MiB available memory on the node where the printing process lives
------------------
     ethr =  5.63E-09,  avg # of iterations =  3.0

     negative rho (up, down):  2.650E-01 0.000E+00

     total cpu time spent up to now is        4.6 secs

     total energy              =      -2.11951352 Ry
     estimated scf accuracy    <       0.00000372 Ry

     iteration # 11     ecut=    15.00 Ry     beta= 0.70
     Davidson diagonalization with overlap

---- Real-time Memory Report at c_bands before calling an iterative solver
           204 MiB given to the printing process from OS
             0 MiB allocation reported by mallinfo(arena+hblkhd)
          1088 MiB available memory on the node where the printing process lives
------------------
     ethr =  5.63E-09,  avg # of iterations =  4.0

     negative rho (up, down):  2.658E-01 0.000E+00

     total cpu time spent up to now is        5.0 secs

     total energy              =      -2.11891991 Ry
     estimated scf accuracy    <       0.00000171 Ry

     iteration # 12     ecut=    15.00 Ry     beta= 0.70
     Davidson diagonalization with overlap

---- Real-time Memory Report at c_bands before calling an iterative solver
           204 MiB given to the printing process from OS
             0 MiB allocation reported by mallinfo(arena+hblkhd)
          1088 MiB available memory on the node where the printing process lives
------------------
     ethr =  5.63E-09,  avg # of iterations =  5.0

     negative rho (up, down):  2.654E-01 0.000E+00

     total cpu time spent up to now is        5.5 secs

     total energy              =      -2.11926316 Ry
     estimated scf accuracy    <       0.00000042 Ry

     iteration # 13     ecut=    15.00 Ry     beta= 0.70
     Davidson diagonalization with overlap

---- Real-time Memory Report at c_bands before calling an iterative solver
           204 MiB given to the printing process from OS
             0 MiB allocation reported by mallinfo(arena+hblkhd)
          1088 MiB available memory on the node where the printing process lives
------------------
     ethr =  5.63E-09,  avg # of iterations =  4.0

     negative rho (up, down):  2.653E-01 0.000E+00

     total cpu time spent up to now is        5.9 secs

     total energy              =      -2.11947787 Ry
     estimated scf accuracy    <       0.00000011 Ry

     iteration # 14     ecut=    15.00 Ry     beta= 0.70
     Davidson diagonalization with overlap

---- Real-time Memory Report at c_bands before calling an iterative solver
           204 MiB given to the printing process from OS
             0 MiB allocation reported by mallinfo(arena+hblkhd)
          1088 MiB available memory on the node where the printing process lives
------------------
     ethr =  5.47E-09,  avg # of iterations =  3.0

     negative rho (up, down):  2.650E-01 0.000E+00

     total cpu time spent up to now is        6.3 secs

     total energy              =      -2.11959033 Ry
     estimated scf accuracy    <       0.00000032 Ry

     iteration # 15     ecut=    15.00 Ry     beta= 0.70
     Davidson diagonalization with overlap

---- Real-time Memory Report at c_bands before calling an iterative solver
           204 MiB given to the printing process from OS
             0 MiB allocation reported by mallinfo(arena+hblkhd)
          1088 MiB available memory on the node where the printing process lives
------------------
     ethr =  5.47E-09,  avg # of iterations =  4.0

     negative rho (up, down):  2.649E-01 0.000E+00

     total cpu time spent up to now is        6.8 secs

     total energy              =      -2.11962952 Ry
     estimated scf accuracy    <       0.00000187 Ry

     iteration # 16     ecut=    15.00 Ry     beta= 0.70
     Davidson diagonalization with overlap

---- Real-time Memory Report at c_bands before calling an iterative solver
           204 MiB given to the printing process from OS
             0 MiB allocation reported by mallinfo(arena+hblkhd)
          1088 MiB available memory on the node where the printing process lives
------------------
     ethr =  5.47E-09,  avg # of iterations =  4.0

     negative rho (up, down):  2.649E-01 0.000E+00

     total cpu time spent up to now is        7.2 secs

     total energy              =      -2.11974440 Ry
     estimated scf accuracy    <       0.00000482 Ry

     iteration # 17     ecut=    15.00 Ry     beta= 0.70
     Davidson diagonalization with overlap

---- Real-time Memory Report at c_bands before calling an iterative solver
           204 MiB given to the printing process from OS
             0 MiB allocation reported by mallinfo(arena+hblkhd)
          1088 MiB available memory on the node where the printing process lives
------------------
     ethr =  5.47E-09,  avg # of iterations =  4.0

     negative rho (up, down):  2.648E-01 0.000E+00

     total cpu time spent up to now is        7.6 secs

     total energy              =      -2.11975015 Ry
     estimated scf accuracy    <       0.00000907 Ry

     iteration # 18     ecut=    15.00 Ry     beta= 0.70
     Davidson diagonalization with overlap

---- Real-time Memory Report at c_bands before calling an iterative solver
           204 MiB given to the printing process from OS
             0 MiB allocation reported by mallinfo(arena+hblkhd)
          1088 MiB available memory on the node where the printing process lives
------------------
     ethr =  5.47E-09,  avg # of iterations =  4.0

     negative rho (up, down):  2.651E-01 0.000E+00

     total cpu time spent up to now is        8.1 secs

     total energy              =      -2.11961728 Ry
     estimated scf accuracy    <       0.00000774 Ry

     iteration # 19     ecut=    15.00 Ry     beta= 0.70
     Davidson diagonalization with overlap

---- Real-time Memory Report at c_bands before calling an iterative solver
           204 MiB given to the printing process from OS
             0 MiB allocation reported by mallinfo(arena+hblkhd)
          1088 MiB available memory on the node where the printing process lives
------------------
     ethr =  5.47E-09,  avg # of iterations =  4.0

     negative rho (up, down):  2.651E-01 0.000E+00

     total cpu time spent up to now is        8.5 secs

     total energy              =      -2.11966548 Ry
     estimated scf accuracy    <       0.00000272 Ry

     iteration # 20     ecut=    15.00 Ry     beta= 0.70
     Davidson diagonalization with overlap

---- Real-time Memory Report at c_bands before calling an iterative solver
           204 MiB given to the printing process from OS
             0 MiB allocation reported by mallinfo(arena+hblkhd)
          1088 MiB available memory on the node where the printing process lives
------------------
     ethr =  5.47E-09,  avg # of iterations =  3.0

     negative rho (up, down):  2.650E-01 0.000E+00

     total cpu time spent up to now is        8.9 secs

     total energy              =      -2.11971064 Ry
     estimated scf accuracy    <       0.00000330 Ry

     iteration # 21     ecut=    15.00 Ry     beta= 0.70
     Davidson diagonalization with overlap

---- Real-time Memory Report at c_bands before calling an iterative solver
           204 MiB given to the printing process from OS
             0 MiB allocation reported by mallinfo(arena+hblkhd)
          1088 MiB available memory on the node where the printing process lives
------------------
     ethr =  5.47E-09,  avg # of iterations =  3.0

     negative rho (up, down):  2.655E-01 0.000E+00

     total cpu time spent up to now is        9.3 secs

     total energy              =      -2.11927183 Ry
     estimated scf accuracy    <       0.00000657 Ry

     iteration # 22     ecut=    15.00 Ry     beta= 0.70
     Davidson diagonalization with overlap

---- Real-time Memory Report at c_bands before calling an iterative solver
           204 MiB given to the printing process from OS
             0 MiB allocation reported by mallinfo(arena+hblkhd)
          1088 MiB available memory on the node where the printing process lives
------------------
     ethr =  5.47E-09,  avg # of iterations =  4.0

     negative rho (up, down):  2.660E-01 0.000E+00

     total cpu time spent up to now is        9.7 secs

     total energy              =      -2.11898917 Ry
     estimated scf accuracy    <       0.00000507 Ry

     iteration # 23     ecut=    15.00 Ry     beta= 0.70
     Davidson diagonalization with overlap

---- Real-time Memory Report at c_bands before calling an iterative solver
           204 MiB given to the printing process from OS
             0 MiB allocation reported by mallinfo(arena+hblkhd)
          1088 MiB available memory on the node where the printing process lives
------------------
     ethr =  5.47E-09,  avg # of iterations =  4.0

     negative rho (up, down):  2.658E-01 0.000E+00

     total cpu time spent up to now is       10.1 secs

     total energy              =      -2.11911019 Ry
     estimated scf accuracy    <       0.00000089 Ry

     iteration # 24     ecut=    15.00 Ry     beta= 0.70
     Davidson diagonalization with overlap

---- Real-time Memory Report at c_bands before calling an iterative solver
           204 MiB given to the printing process from OS
             0 MiB allocation reported by mallinfo(arena+hblkhd)
          1088 MiB available memory on the node where the printing process lives
------------------
     ethr =  5.47E-09,  avg # of iterations =  4.0

     negative rho (up, down):  2.653E-01 0.000E+00

     total cpu time spent up to now is       10.6 secs

     total energy              =      -2.11949238 Ry
     estimated scf accuracy    <       0.00000301 Ry

     iteration # 25     ecut=    15.00 Ry     beta= 0.70
     Davidson diagonalization with overlap

---- Real-time Memory Report at c_bands before calling an iterative solver
           204 MiB given to the printing process from OS
             0 MiB allocation reported by mallinfo(arena+hblkhd)
          1088 MiB available memory on the node where the printing process lives
------------------
     ethr =  5.47E-09,  avg # of iterations =  4.0

     negative rho (up, down):  2.655E-01 0.000E+00

     total cpu time spent up to now is       11.0 secs

     total energy              =      -2.11914499 Ry
     estimated scf accuracy    <       0.00000278 Ry

     iteration # 26     ecut=    15.00 Ry     beta= 0.70
     Davidson diagonalization with overlap

---- Real-time Memory Report at c_bands before calling an iterative solver
           204 MiB given to the printing process from OS
             0 MiB allocation reported by mallinfo(arena+hblkhd)
          1087 MiB available memory on the node where the printing process lives
------------------
     ethr =  5.47E-09,  avg # of iterations =  4.0

     negative rho (up, down):  2.653E-01 0.000E+00

     total cpu time spent up to now is       11.4 secs

     total energy              =      -2.11950570 Ry
     estimated scf accuracy    <       0.00000011 Ry

     iteration # 27     ecut=    15.00 Ry     beta= 0.70
     Davidson diagonalization with overlap

---- Real-time Memory Report at c_bands before calling an iterative solver
           204 MiB given to the printing process from OS
             0 MiB allocation reported by mallinfo(arena+hblkhd)
          1087 MiB available memory on the node where the printing process lives
------------------
     ethr =  5.47E-09,  avg # of iterations =  4.0

     negative rho (up, down):  2.651E-01 0.000E+00

     total cpu time spent up to now is       11.9 secs

     total energy              =      -2.11960644 Ry
     estimated scf accuracy    <       0.00000255 Ry

     iteration # 28     ecut=    15.00 Ry     beta= 0.70
     Davidson diagonalization with overlap

---- Real-time Memory Report at c_bands before calling an iterative solver
           204 MiB given to the printing process from OS
             0 MiB allocation reported by mallinfo(arena+hblkhd)
          1087 MiB available memory on the node where the printing process lives
------------------
     ethr =  5.47E-09,  avg # of iterations =  4.0

     negative rho (up, down):  2.651E-01 0.000E+00

     total cpu time spent up to now is       12.3 secs

     total energy              =      -2.11968418 Ry
     estimated scf accuracy    <       0.00000218 Ry

     iteration # 29     ecut=    15.00 Ry     beta= 0.70
     Davidson diagonalization with overlap

---- Real-time Memory Report at c_bands before calling an iterative solver
           204 MiB given to the printing process from OS
             0 MiB allocation reported by mallinfo(arena+hblkhd)
          1087 MiB available memory on the node where the printing process lives
------------------
     ethr =  5.47E-09,  avg # of iterations =  2.0

     negative rho (up, down):  2.654E-01 0.000E+00

     total cpu time spent up to now is       12.7 secs

     total energy              =      -2.11933530 Ry
     estimated scf accuracy    <       0.00000190 Ry

     iteration # 30     ecut=    15.00 Ry     beta= 0.70
     Davidson diagonalization with overlap

---- Real-time Memory Report at c_bands before calling an iterative solver
           204 MiB given to the printing process from OS
             0 MiB allocation reported by mallinfo(arena+hblkhd)
          1087 MiB available memory on the node where the printing process lives
------------------
     ethr =  5.47E-09,  avg # of iterations =  4.0

     negative rho (up, down):  2.655E-01 0.000E+00

     total cpu time spent up to now is       13.1 secs

     total energy              =      -2.11930108 Ry
     estimated scf accuracy    <       0.00000058 Ry

     iteration # 31     ecut=    15.00 Ry     beta= 0.70
     Davidson diagonalization with overlap

---- Real-time Memory Report at c_bands before calling an iterative solver
           204 MiB given to the printing process from OS
             0 MiB allocation reported by mallinfo(arena+hblkhd)
          1087 MiB available memory on the node where the printing process lives
------------------
     ethr =  5.47E-09,  avg # of iterations =  4.0

     negative rho (up, down):  2.654E-01 0.000E+00

     total cpu time spent up to now is       13.5 secs

     total energy              =      -2.11943986 Ry
     estimated scf accuracy    <       0.00000031 Ry

     iteration # 32     ecut=    15.00 Ry     beta= 0.70
     Davidson diagonalization with overlap

---- Real-time Memory Report at c_bands before calling an iterative solver
           204 MiB given to the printing process from OS
             0 MiB allocation reported by mallinfo(arena+hblkhd)
          1087 MiB available memory on the node where the printing process lives
------------------
     ethr =  5.47E-09,  avg # of iterations =  4.0

     negative rho (up, down):  2.654E-01 0.000E+00

     total cpu time spent up to now is       13.9 secs

     total energy              =      -2.11946339 Ry
     estimated scf accuracy    <       0.00000086 Ry

     iteration # 33     ecut=    15.00 Ry     beta= 0.70
     Davidson diagonalization with overlap

---- Real-time Memory Report at c_bands before calling an iterative solver
           204 MiB given to the printing process from OS
             0 MiB allocation reported by mallinfo(arena+hblkhd)
          1087 MiB available memory on the node where the printing process lives
------------------
     ethr =  5.47E-09,  avg # of iterations =  4.0

     negative rho (up, down):  2.655E-01 0.000E+00

     total cpu time spent up to now is       14.4 secs

     total energy              =      -2.11933351 Ry
     estimated scf accuracy    <       0.00000227 Ry

     iteration # 34     ecut=    15.00 Ry     beta= 0.70
     Davidson diagonalization with overlap

---- Real-time Memory Report at c_bands before calling an iterative solver
           204 MiB given to the printing process from OS
             0 MiB allocation reported by mallinfo(arena+hblkhd)
          1087 MiB available memory on the node where the printing process lives
------------------
     ethr =  5.47E-09,  avg # of iterations =  4.0

     negative rho (up, down):  2.654E-01 0.000E+00

     total cpu time spent up to now is       14.8 secs

     total energy              =      -2.11937316 Ry
     estimated scf accuracy    <       0.00000004 Ry

     iteration # 35     ecut=    15.00 Ry     beta= 0.70
     Davidson diagonalization with overlap

---- Real-time Memory Report at c_bands before calling an iterative solver
           204 MiB given to the printing process from OS
             0 MiB allocation reported by mallinfo(arena+hblkhd)
          1087 MiB available memory on the node where the printing process lives
------------------
     ethr =  2.18E-09,  avg # of iterations =  4.0

     negative rho (up, down):  2.656E-01 0.000E+00

     total cpu time spent up to now is       15.2 secs

     total energy              =      -2.11916434 Ry
     estimated scf accuracy    <       0.00000063 Ry

     iteration # 36     ecut=    15.00 Ry     beta= 0.70
     Davidson diagonalization with overlap

---- Real-time Memory Report at c_bands before calling an iterative solver
           204 MiB given to the printing process from OS
             0 MiB allocation reported by mallinfo(arena+hblkhd)
          1087 MiB available memory on the node where the printing process lives
------------------
     ethr =  2.18E-09,  avg # of iterations =  4.0

     negative rho (up, down):  2.655E-01 0.000E+00

     total cpu time spent up to now is       15.6 secs

     total energy              =      -2.11930233 Ry
     estimated scf accuracy    <       0.00000035 Ry

     iteration # 37     ecut=    15.00 Ry     beta= 0.70
     Davidson diagonalization with overlap

---- Real-time Memory Report at c_bands before calling an iterative solver
           204 MiB given to the printing process from OS
             0 MiB allocation reported by mallinfo(arena+hblkhd)
          1087 MiB available memory on the node where the printing process lives
------------------
     ethr =  2.18E-09,  avg # of iterations =  4.0

     negative rho (up, down):  2.655E-01 0.000E+00

     total cpu time spent up to now is       16.0 secs

     total energy              =      -2.11931967 Ry
     estimated scf accuracy    <       0.00000031 Ry

     iteration # 38     ecut=    15.00 Ry     beta= 0.70
     Davidson diagonalization with overlap

---- Real-time Memory Report at c_bands before calling an iterative solver
           204 MiB given to the printing process from OS
             0 MiB allocation reported by mallinfo(arena+hblkhd)
          1087 MiB available memory on the node where the printing process lives
------------------
     ethr =  2.18E-09,  avg # of iterations =  4.0

     negative rho (up, down):  2.656E-01 0.000E+00

     total cpu time spent up to now is       16.4 secs

     total energy              =      -2.11933229 Ry
     estimated scf accuracy    <       0.00000118 Ry

     iteration # 39     ecut=    15.00 Ry     beta= 0.70
     Davidson diagonalization with overlap

---- Real-time Memory Report at c_bands before calling an iterative solver
           204 MiB given to the printing process from OS
             0 MiB allocation reported by mallinfo(arena+hblkhd)
          1087 MiB available memory on the node where the printing process lives
------------------
     ethr =  2.18E-09,  avg # of iterations =  4.0

     negative rho (up, down):  2.656E-01 0.000E+00

     total cpu time spent up to now is       16.9 secs

     total energy              =      -2.11935808 Ry
     estimated scf accuracy    <       0.00000021 Ry

     iteration # 40     ecut=    15.00 Ry     beta= 0.70
     Davidson diagonalization with overlap

---- Real-time Memory Report at c_bands before calling an iterative solver
           204 MiB given to the printing process from OS
             0 MiB allocation reported by mallinfo(arena+hblkhd)
          1087 MiB available memory on the node where the printing process lives
------------------
     ethr =  2.18E-09,  avg # of iterations =  4.0

     negative rho (up, down):  2.655E-01 0.000E+00

     total cpu time spent up to now is       17.3 secs

     total energy              =      -2.11925399 Ry
     estimated scf accuracy    <       0.00000072 Ry

     iteration # 41     ecut=    15.00 Ry     beta= 0.70
     Davidson diagonalization with overlap

---- Real-time Memory Report at c_bands before calling an iterative solver
           204 MiB given to the printing process from OS
             0 MiB allocation reported by mallinfo(arena+hblkhd)
          1087 MiB available memory on the node where the printing process lives
------------------
     ethr =  2.18E-09,  avg # of iterations =  4.0

     negative rho (up, down):  2.655E-01 0.000E+00

     total cpu time spent up to now is       17.7 secs

     total energy              =      -2.11933412 Ry
     estimated scf accuracy    <       0.00000098 Ry

     iteration # 42     ecut=    15.00 Ry     beta= 0.70
     Davidson diagonalization with overlap

---- Real-time Memory Report at c_bands before calling an iterative solver
           204 MiB given to the printing process from OS
             0 MiB allocation reported by mallinfo(arena+hblkhd)
          1087 MiB available memory on the node where the printing process lives
------------------
     ethr =  2.18E-09,  avg # of iterations =  4.0

     negative rho (up, down):  2.655E-01 0.000E+00

     total cpu time spent up to now is       18.1 secs

     total energy              =      -2.11931617 Ry
     estimated scf accuracy    <       0.00000012 Ry

     iteration # 43     ecut=    15.00 Ry     beta= 0.70
     Davidson diagonalization with overlap

---- Real-time Memory Report at c_bands before calling an iterative solver
           204 MiB given to the printing process from OS
             0 MiB allocation reported by mallinfo(arena+hblkhd)
          1087 MiB available memory on the node where the printing process lives
------------------
     ethr =  2.18E-09,  avg # of iterations =  4.0

     negative rho (up, down):  2.655E-01 0.000E+00

     total cpu time spent up to now is       18.5 secs

     total energy              =      -2.11932770 Ry
     estimated scf accuracy    <       0.00000040 Ry

     iteration # 44     ecut=    15.00 Ry     beta= 0.70
     Davidson diagonalization with overlap

---- Real-time Memory Report at c_bands before calling an iterative solver
           204 MiB given to the printing process from OS
             0 MiB allocation reported by mallinfo(arena+hblkhd)
          1087 MiB available memory on the node where the printing process lives
------------------
     ethr =  2.18E-09,  avg # of iterations =  3.0

     negative rho (up, down):  2.655E-01 0.000E+00

     total cpu time spent up to now is       18.9 secs

     total energy              =      -2.11933334 Ry
     estimated scf accuracy    <       0.00000061 Ry

     iteration # 45     ecut=    15.00 Ry     beta= 0.70
     Davidson diagonalization with overlap

---- Real-time Memory Report at c_bands before calling an iterative solver
           204 MiB given to the printing process from OS
             0 MiB allocation reported by mallinfo(arena+hblkhd)
          1087 MiB available memory on the node where the printing process lives
------------------
     ethr =  2.18E-09,  avg # of iterations =  4.0

     negative rho (up, down):  2.656E-01 0.000E+00

     total cpu time spent up to now is       19.4 secs

     total energy              =      -2.11933448 Ry
     estimated scf accuracy    <       0.00000123 Ry

     iteration # 46     ecut=    15.00 Ry     beta= 0.70
     Davidson diagonalization with overlap

---- Real-time Memory Report at c_bands before calling an iterative solver
           204 MiB given to the printing process from OS
             0 MiB allocation reported by mallinfo(arena+hblkhd)
          1087 MiB available memory on the node where the printing process lives
------------------
     ethr =  2.18E-09,  avg # of iterations =  4.0

     negative rho (up, down):  2.656E-01 0.000E+00

     total cpu time spent up to now is       19.8 secs

     total energy              =      -2.11933913 Ry
     estimated scf accuracy    <       0.00000165 Ry

     iteration # 47     ecut=    15.00 Ry     beta= 0.70
     Davidson diagonalization with overlap

---- Real-time Memory Report at c_bands before calling an iterative solver
           204 MiB given to the printing process from OS
             0 MiB allocation reported by mallinfo(arena+hblkhd)
          1087 MiB available memory on the node where the printing process lives
------------------
     ethr =  2.18E-09,  avg # of iterations =  3.0

     negative rho (up, down):  2.656E-01 0.000E+00

     total cpu time spent up to now is       20.2 secs

     total energy              =      -2.11933867 Ry
     estimated scf accuracy    <       0.00000180 Ry

     iteration # 48     ecut=    15.00 Ry     beta= 0.70
     Davidson diagonalization with overlap

---- Real-time Memory Report at c_bands before calling an iterative solver
           204 MiB given to the printing process from OS
             0 MiB allocation reported by mallinfo(arena+hblkhd)
          1087 MiB available memory on the node where the printing process lives
------------------
     ethr =  2.18E-09,  avg # of iterations =  2.0

     negative rho (up, down):  2.655E-01 0.000E+00

     total cpu time spent up to now is       20.6 secs

     total energy              =      -2.11931853 Ry
     estimated scf accuracy    <       0.00000196 Ry

     iteration # 49     ecut=    15.00 Ry     beta= 0.70
     Davidson diagonalization with overlap

---- Real-time Memory Report at c_bands before calling an iterative solver
           204 MiB given to the printing process from OS
             0 MiB allocation reported by mallinfo(arena+hblkhd)
          1087 MiB available memory on the node where the printing process lives
------------------
     ethr =  2.18E-09,  avg # of iterations =  4.0

     negative rho (up, down):  2.653E-01 0.000E+00

     total cpu time spent up to now is       21.0 secs

     total energy              =      -2.11943838 Ry
     estimated scf accuracy    <       0.00000007 Ry

     iteration # 50     ecut=    15.00 Ry     beta= 0.70
     Davidson diagonalization with overlap

---- Real-time Memory Report at c_bands before calling an iterative solver
           204 MiB given to the printing process from OS
             0 MiB allocation reported by mallinfo(arena+hblkhd)
          1087 MiB available memory on the node where the printing process lives
------------------
     ethr =  2.18E-09,  avg # of iterations =  4.0

     negative rho (up, down):  2.654E-01 0.000E+00

     total cpu time spent up to now is       21.4 secs

     total energy              =      -2.11956152 Ry
     estimated scf accuracy    <       0.00000977 Ry

     iteration # 51     ecut=    15.00 Ry     beta= 0.70
     Davidson diagonalization with overlap

---- Real-time Memory Report at c_bands before calling an iterative solver
           204 MiB given to the printing process from OS
             0 MiB allocation reported by mallinfo(arena+hblkhd)
          1087 MiB available memory on the node where the printing process lives
------------------
     ethr =  2.18E-09,  avg # of iterations =  4.0

     negative rho (up, down):  2.654E-01 0.000E+00

     total cpu time spent up to now is       21.8 secs

     total energy              =      -2.11961453 Ry
     estimated scf accuracy    <       0.00000854 Ry

     iteration # 52     ecut=    15.00 Ry     beta= 0.70
     Davidson diagonalization with overlap

---- Real-time Memory Report at c_bands before calling an iterative solver
           204 MiB given to the printing process from OS
             0 MiB allocation reported by mallinfo(arena+hblkhd)
          1087 MiB available memory on the node where the printing process lives
------------------
     ethr =  2.18E-09,  avg # of iterations =  4.0

     negative rho (up, down):  2.655E-01 0.000E+00

     total cpu time spent up to now is       22.3 secs

     total energy              =      -2.11925403 Ry
     estimated scf accuracy    <       0.00002146 Ry

     iteration # 53     ecut=    15.00 Ry     beta= 0.70
     Davidson diagonalization with overlap

---- Real-time Memory Report at c_bands before calling an iterative solver
           204 MiB given to the printing process from OS
             0 MiB allocation reported by mallinfo(arena+hblkhd)
          1087 MiB available memory on the node where the printing process lives
------------------
     ethr =  2.18E-09,  avg # of iterations =  4.0

     negative rho (up, down):  2.655E-01 0.000E+00

     total cpu time spent up to now is       22.7 secs

     total energy              =      -2.11930730 Ry
     estimated scf accuracy    <       0.00000268 Ry

     iteration # 54     ecut=    15.00 Ry     beta= 0.70
     Davidson diagonalization with overlap

---- Real-time Memory Report at c_bands before calling an iterative solver
           204 MiB given to the printing process from OS
             0 MiB allocation reported by mallinfo(arena+hblkhd)
          1087 MiB available memory on the node where the printing process lives
------------------
     ethr =  2.18E-09,  avg # of iterations =  4.0

     negative rho (up, down):  2.656E-01 0.000E+00

     total cpu time spent up to now is       23.1 secs

     total energy              =      -2.11930656 Ry
     estimated scf accuracy    <       0.00000010 Ry

     iteration # 55     ecut=    15.00 Ry     beta= 0.70
     Davidson diagonalization with overlap

---- Real-time Memory Report at c_bands before calling an iterative solver
           204 MiB given to the printing process from OS
             0 MiB allocation reported by mallinfo(arena+hblkhd)
          1087 MiB available memory on the node where the printing process lives
------------------
     ethr =  2.18E-09,  avg # of iterations =  4.0

     negative rho (up, down):  2.655E-01 0.000E+00

     total cpu time spent up to now is       23.5 secs

     total energy              =      -2.11932402 Ry
     estimated scf accuracy    <       0.00000078 Ry

     iteration # 56     ecut=    15.00 Ry     beta= 0.70
     Davidson diagonalization with overlap

---- Real-time Memory Report at c_bands before calling an iterative solver
           204 MiB given to the printing process from OS
             0 MiB allocation reported by mallinfo(arena+hblkhd)
          1087 MiB available memory on the node where the printing process lives
------------------
     ethr =  2.18E-09,  avg # of iterations =  4.0

     negative rho (up, down):  2.654E-01 0.000E+00

     total cpu time spent up to now is       23.9 secs

     total energy              =      -2.11937611 Ry
     estimated scf accuracy    <       0.00000120 Ry

     iteration # 57     ecut=    15.00 Ry     beta= 0.70
     Davidson diagonalization with overlap

---- Real-time Memory Report at c_bands before calling an iterative solver
           204 MiB given to the printing process from OS
             0 MiB allocation reported by mallinfo(arena+hblkhd)
          1087 MiB available memory on the node where the printing process lives
------------------
     ethr =  2.18E-09,  avg # of iterations =  4.0

     negative rho (up, down):  2.656E-01 0.000E+00

     total cpu time spent up to now is       24.4 secs

     total energy              =      -2.11927752 Ry
     estimated scf accuracy    <       0.00000117 Ry

     iteration # 58     ecut=    15.00 Ry     beta= 0.70
     Davidson diagonalization with overlap

---- Real-time Memory Report at c_bands before calling an iterative solver
           204 MiB given to the printing process from OS
             0 MiB allocation reported by mallinfo(arena+hblkhd)
          1087 MiB available memory on the node where the printing process lives
------------------
     ethr =  2.18E-09,  avg # of iterations =  4.0

     negative rho (up, down):  2.656E-01 0.000E+00

     total cpu time spent up to now is       24.8 secs

     total energy              =      -2.11931609 Ry
     estimated scf accuracy    <       0.00000030 Ry

     iteration # 59     ecut=    15.00 Ry     beta= 0.70
     Davidson diagonalization with overlap

---- Real-time Memory Report at c_bands before calling an iterative solver
           204 MiB given to the printing process from OS
             0 MiB allocation reported by mallinfo(arena+hblkhd)
          1087 MiB available memory on the node where the printing process lives
------------------
     ethr =  2.18E-09,  avg # of iterations =  3.0

     negative rho (up, down):  2.656E-01 0.000E+00

     total cpu time spent up to now is       25.2 secs

     total energy              =      -2.11930393 Ry
     estimated scf accuracy    <       0.00000018 Ry

     iteration # 60     ecut=    15.00 Ry     beta= 0.70
     Davidson diagonalization with overlap

---- Real-time Memory Report at c_bands before calling an iterative solver
           204 MiB given to the printing process from OS
             0 MiB allocation reported by mallinfo(arena+hblkhd)
          1087 MiB available memory on the node where the printing process lives
------------------
     ethr =  2.18E-09,  avg # of iterations =  3.0

     negative rho (up, down):  2.654E-01 0.000E+00

     total cpu time spent up to now is       25.6 secs

     total energy              =      -2.11946905 Ry
     estimated scf accuracy    <       0.00000021 Ry

     iteration # 61     ecut=    15.00 Ry     beta= 0.70
     Davidson diagonalization with overlap

---- Real-time Memory Report at c_bands before calling an iterative solver
           204 MiB given to the printing process from OS
             0 MiB allocation reported by mallinfo(arena+hblkhd)
          1087 MiB available memory on the node where the printing process lives
------------------
     ethr =  2.18E-09,  avg # of iterations =  4.0

     negative rho (up, down):  2.658E-01 0.000E+00

     total cpu time spent up to now is       26.0 secs

     total energy              =      -2.11913470 Ry
     estimated scf accuracy    <       0.00000195 Ry

     iteration # 62     ecut=    15.00 Ry     beta= 0.70
     Davidson diagonalization with overlap

---- Real-time Memory Report at c_bands before calling an iterative solver
           204 MiB given to the printing process from OS
             0 MiB allocation reported by mallinfo(arena+hblkhd)
          1087 MiB available memory on the node where the printing process lives
------------------
     ethr =  2.18E-09,  avg # of iterations =  5.0

     negative rho (up, down):  2.657E-01 0.000E+00

     total cpu time spent up to now is       26.4 secs

     total energy              =      -2.11929470 Ry
     estimated scf accuracy    <       0.00001080 Ry

     iteration # 63     ecut=    15.00 Ry     beta= 0.70
     Davidson diagonalization with overlap

---- Real-time Memory Report at c_bands before calling an iterative solver
           204 MiB given to the printing process from OS
             0 MiB allocation reported by mallinfo(arena+hblkhd)
          1087 MiB available memory on the node where the printing process lives
------------------
     ethr =  2.18E-09,  avg # of iterations =  4.0

     negative rho (up, down):  2.658E-01 0.000E+00

     total cpu time spent up to now is       26.9 secs

     total energy              =      -2.11924162 Ry
     estimated scf accuracy    <       0.00000345 Ry

     iteration # 64     ecut=    15.00 Ry     beta= 0.70
     Davidson diagonalization with overlap

---- Real-time Memory Report at c_bands before calling an iterative solver
           204 MiB given to the printing process from OS
             0 MiB allocation reported by mallinfo(arena+hblkhd)
          1087 MiB available memory on the node where the printing process lives
------------------
     ethr =  2.18E-09,  avg # of iterations =  4.0

     negative rho (up, down):  2.655E-01 0.000E+00

     total cpu time spent up to now is       27.3 secs

     total energy              =      -2.11932005 Ry
     estimated scf accuracy    <       0.00000544 Ry

     iteration # 65     ecut=    15.00 Ry     beta= 0.70
     Davidson diagonalization with overlap

---- Real-time Memory Report at c_bands before calling an iterative solver
           204 MiB given to the printing process from OS
             0 MiB allocation reported by mallinfo(arena+hblkhd)
          1087 MiB available memory on the node where the printing process lives
------------------
     ethr =  2.18E-09,  avg # of iterations =  4.0

     negative rho (up, down):  2.657E-01 0.000E+00

     total cpu time spent up to now is       27.7 secs

     total energy              =      -2.11928237 Ry
     estimated scf accuracy    <       0.00000024 Ry

     iteration # 66     ecut=    15.00 Ry     beta= 0.70
     Davidson diagonalization with overlap

---- Real-time Memory Report at c_bands before calling an iterative solver
           204 MiB given to the printing process from OS
             0 MiB allocation reported by mallinfo(arena+hblkhd)
          1087 MiB available memory on the node where the printing process lives
------------------
     ethr =  2.18E-09,  avg # of iterations =  4.0

     negative rho (up, down):  2.658E-01 0.000E+00

     total cpu time spent up to now is       28.1 secs

     total energy              =      -2.11924480 Ry
     estimated scf accuracy    <       0.00000035 Ry

     iteration # 67     ecut=    15.00 Ry     beta= 0.70
     Davidson diagonalization with overlap

---- Real-time Memory Report at c_bands before calling an iterative solver
           204 MiB given to the printing process from OS
             0 MiB allocation reported by mallinfo(arena+hblkhd)
          1087 MiB available memory on the node where the printing process lives
------------------
     ethr =  2.18E-09,  avg # of iterations =  4.0

     negative rho (up, down):  2.657E-01 0.000E+00

     total cpu time spent up to now is       28.5 secs

     total energy              =      -2.11913521 Ry
     estimated scf accuracy    <       0.00001045 Ry

     iteration # 68     ecut=    15.00 Ry     beta= 0.70
     Davidson diagonalization with overlap

---- Real-time Memory Report at c_bands before calling an iterative solver
           204 MiB given to the printing process from OS
             0 MiB allocation reported by mallinfo(arena+hblkhd)
          1087 MiB available memory on the node where the printing process lives
------------------
     ethr =  2.18E-09,  avg # of iterations =  4.0

     negative rho (up, down):  2.656E-01 0.000E+00

     total cpu time spent up to now is       28.9 secs

     total energy              =      -2.11934140 Ry
     estimated scf accuracy    <       0.00000045 Ry

     iteration # 69     ecut=    15.00 Ry     beta= 0.70
     Davidson diagonalization with overlap

---- Real-time Memory Report at c_bands before calling an iterative solver
           204 MiB given to the printing process from OS
             0 MiB allocation reported by mallinfo(arena+hblkhd)
          1087 MiB available memory on the node where the printing process lives
------------------
     ethr =  2.18E-09,  avg # of iterations =  4.0

     negative rho (up, down):  2.657E-01 0.000E+00

     total cpu time spent up to now is       29.4 secs

     total energy              =      -2.11920594 Ry
     estimated scf accuracy    <       0.00000083 Ry

     iteration # 70     ecut=    15.00 Ry     beta= 0.70
     Davidson diagonalization with overlap

---- Real-time Memory Report at c_bands before calling an iterative solver
           204 MiB given to the printing process from OS
             0 MiB allocation reported by mallinfo(arena+hblkhd)
          1087 MiB available memory on the node where the printing process lives
------------------
     ethr =  2.18E-09,  avg # of iterations =  4.0

     negative rho (up, down):  2.657E-01 0.000E+00

     total cpu time spent up to now is       29.8 secs

     total energy              =      -2.11918881 Ry
     estimated scf accuracy    <       0.00000069 Ry

     iteration # 71     ecut=    15.00 Ry     beta= 0.70
     Davidson diagonalization with overlap

---- Real-time Memory Report at c_bands before calling an iterative solver
           204 MiB given to the printing process from OS
             0 MiB allocation reported by mallinfo(arena+hblkhd)
          1087 MiB available memory on the node where the printing process lives
------------------
     ethr =  2.18E-09,  avg # of iterations =  5.0

     negative rho (up, down):  2.657E-01 0.000E+00

     total cpu time spent up to now is       30.2 secs

     total energy              =      -2.11948724 Ry
     estimated scf accuracy    <       0.00000612 Ry

     iteration # 72     ecut=    15.00 Ry     beta= 0.70
     Davidson diagonalization with overlap

---- Real-time Memory Report at c_bands before calling an iterative solver
           204 MiB given to the printing process from OS
             0 MiB allocation reported by mallinfo(arena+hblkhd)
          1087 MiB available memory on the node where the printing process lives
------------------
     ethr =  2.18E-09,  avg # of iterations =  3.0

     negative rho (up, down):  2.656E-01 0.000E+00

     total cpu time spent up to now is       30.6 secs

     total energy              =      -2.11947663 Ry
     estimated scf accuracy    <       0.00000809 Ry

     iteration # 73     ecut=    15.00 Ry     beta= 0.70
     Davidson diagonalization with overlap

---- Real-time Memory Report at c_bands before calling an iterative solver
           204 MiB given to the printing process from OS
             0 MiB allocation reported by mallinfo(arena+hblkhd)
          1087 MiB available memory on the node where the printing process lives
------------------
     ethr =  2.18E-09,  avg # of iterations =  4.0

     negative rho (up, down):  2.657E-01 0.000E+00

     total cpu time spent up to now is       31.0 secs

     total energy              =      -2.11920745 Ry
     estimated scf accuracy    <       0.00000980 Ry

     iteration # 74     ecut=    15.00 Ry     beta= 0.70
     Davidson diagonalization with overlap

---- Real-time Memory Report at c_bands before calling an iterative solver
           204 MiB given to the printing process from OS
             0 MiB allocation reported by mallinfo(arena+hblkhd)
          1087 MiB available memory on the node where the printing process lives
------------------
     ethr =  2.18E-09,  avg # of iterations =  4.0

     negative rho (up, down):  2.657E-01 0.000E+00

     total cpu time spent up to now is       31.4 secs

     total energy              =      -2.11930655 Ry
     estimated scf accuracy    <       0.00000270 Ry

     iteration # 75     ecut=    15.00 Ry     beta= 0.70
     Davidson diagonalization with overlap

---- Real-time Memory Report at c_bands before calling an iterative solver
           204 MiB given to the printing process from OS
             0 MiB allocation reported by mallinfo(arena+hblkhd)
          1087 MiB available memory on the node where the printing process lives
------------------
     ethr =  2.18E-09,  avg # of iterations =  4.0

     negative rho (up, down):  2.657E-01 0.000E+00

     total cpu time spent up to now is       31.9 secs

     total energy              =      -2.11922607 Ry
     estimated scf accuracy    <       0.00000572 Ry

     iteration # 76     ecut=    15.00 Ry     beta= 0.70
     Davidson diagonalization with overlap

---- Real-time Memory Report at c_bands before calling an iterative solver
           204 MiB given to the printing process from OS
             0 MiB allocation reported by mallinfo(arena+hblkhd)
          1087 MiB available memory on the node where the printing process lives
------------------
     ethr =  2.18E-09,  avg # of iterations =  4.0

     negative rho (up, down):  2.657E-01 0.000E+00

     total cpu time spent up to now is       32.3 secs

     total energy              =      -2.11913592 Ry
     estimated scf accuracy    <       0.00000226 Ry

     iteration # 77     ecut=    15.00 Ry     beta= 0.70
     Davidson diagonalization with overlap

---- Real-time Memory Report at c_bands before calling an iterative solver
           204 MiB given to the printing process from OS
             0 MiB allocation reported by mallinfo(arena+hblkhd)
          1087 MiB available memory on the node where the printing process lives
------------------
     ethr =  2.18E-09,  avg # of iterations =  4.0

     negative rho (up, down):  2.657E-01 0.000E+00

     total cpu time spent up to now is       32.7 secs

     total energy              =      -2.11919146 Ry
     estimated scf accuracy    <       0.00000004 Ry

     iteration # 78     ecut=    15.00 Ry     beta= 0.70
     Davidson diagonalization with overlap

---- Real-time Memory Report at c_bands before calling an iterative solver
           204 MiB given to the printing process from OS
             0 MiB allocation reported by mallinfo(arena+hblkhd)
          1087 MiB available memory on the node where the printing process lives
------------------
     ethr =  2.05E-09,  avg # of iterations =  4.0

     negative rho (up, down):  2.657E-01 0.000E+00

     total cpu time spent up to now is       33.1 secs

     total energy              =      -2.11929535 Ry
     estimated scf accuracy    <       0.00000114 Ry

     iteration # 79     ecut=    15.00 Ry     beta= 0.70
     Davidson diagonalization with overlap

---- Real-time Memory Report at c_bands before calling an iterative solver
           204 MiB given to the printing process from OS
             0 MiB allocation reported by mallinfo(arena+hblkhd)
          1087 MiB available memory on the node where the printing process lives
------------------
     ethr =  2.05E-09,  avg # of iterations =  3.0

     negative rho (up, down):  2.657E-01 0.000E+00

     total cpu time spent up to now is       33.5 secs

     total energy              =      -2.11939689 Ry
     estimated scf accuracy    <       0.00000050 Ry

     iteration # 80     ecut=    15.00 Ry     beta= 0.70
     Davidson diagonalization with overlap

---- Real-time Memory Report at c_bands before calling an iterative solver
           204 MiB given to the printing process from OS
             0 MiB allocation reported by mallinfo(arena+hblkhd)
          1087 MiB available memory on the node where the printing process lives
------------------
     ethr =  2.05E-09,  avg # of iterations =  4.0

     negative rho (up, down):  2.656E-01 0.000E+00

     total cpu time spent up to now is       33.9 secs

     total energy              =      -2.11908186 Ry
     estimated scf accuracy    <       0.00001167 Ry

     iteration # 81     ecut=    15.00 Ry     beta= 0.70
     Davidson diagonalization with overlap

---- Real-time Memory Report at c_bands before calling an iterative solver
           204 MiB given to the printing process from OS
             0 MiB allocation reported by mallinfo(arena+hblkhd)
          1087 MiB available memory on the node where the printing process lives
------------------
     ethr =  2.05E-09,  avg # of iterations =  5.0

     negative rho (up, down):  2.657E-01 0.000E+00

     total cpu time spent up to now is       34.3 secs

     total energy              =      -2.11925788 Ry
     estimated scf accuracy    <       0.00000004 Ry

     iteration # 82     ecut=    15.00 Ry     beta= 0.70
     Davidson diagonalization with overlap

---- Real-time Memory Report at c_bands before calling an iterative solver
           204 MiB given to the printing process from OS
             0 MiB allocation reported by mallinfo(arena+hblkhd)
          1087 MiB available memory on the node where the printing process lives
------------------
     ethr =  2.01E-09,  avg # of iterations =  4.0

     negative rho (up, down):  2.658E-01 0.000E+00

     total cpu time spent up to now is       34.8 secs

     total energy              =      -2.11922654 Ry
     estimated scf accuracy    <       0.00000020 Ry

     iteration # 83     ecut=    15.00 Ry     beta= 0.70
     Davidson diagonalization with overlap

---- Real-time Memory Report at c_bands before calling an iterative solver
           204 MiB given to the printing process from OS
             0 MiB allocation reported by mallinfo(arena+hblkhd)
          1087 MiB available memory on the node where the printing process lives
------------------
     ethr =  2.01E-09,  avg # of iterations =  4.0

     negative rho (up, down):  2.659E-01 0.000E+00

     total cpu time spent up to now is       35.2 secs

     total energy              =      -2.11922553 Ry
     estimated scf accuracy    <       0.00000615 Ry

     iteration # 84     ecut=    15.00 Ry     beta= 0.70
     Davidson diagonalization with overlap

---- Real-time Memory Report at c_bands before calling an iterative solver
           204 MiB given to the printing process from OS
             0 MiB allocation reported by mallinfo(arena+hblkhd)
          1087 MiB available memory on the node where the printing process lives
------------------
     ethr =  2.01E-09,  avg # of iterations =  4.0

     negative rho (up, down):  2.658E-01 0.000E+00

     total cpu time spent up to now is       35.6 secs

     total energy              =      -2.11931571 Ry
     estimated scf accuracy    <       0.00000170 Ry

     iteration # 85     ecut=    15.00 Ry     beta= 0.70
     Davidson diagonalization with overlap

---- Real-time Memory Report at c_bands before calling an iterative solver
           204 MiB given to the printing process from OS
             0 MiB allocation reported by mallinfo(arena+hblkhd)
          1087 MiB available memory on the node where the printing process lives
------------------
     ethr =  2.01E-09,  avg # of iterations =  4.0

     negative rho (up, down):  2.658E-01 0.000E+00

     total cpu time spent up to now is       36.0 secs

     total energy              =      -2.11908214 Ry
     estimated scf accuracy    <       0.00001614 Ry

     iteration # 86     ecut=    15.00 Ry     beta= 0.70
     Davidson diagonalization with overlap

---- Real-time Memory Report at c_bands before calling an iterative solver
           204 MiB given to the printing process from OS
             0 MiB allocation reported by mallinfo(arena+hblkhd)
          1087 MiB available memory on the node where the printing process lives
------------------
     ethr =  2.01E-09,  avg # of iterations =  4.0

     negative rho (up, down):  2.658E-01 0.000E+00

     total cpu time spent up to now is       36.4 secs

     total energy              =      -2.11914306 Ry
     estimated scf accuracy    <       0.00000302 Ry

     iteration # 87     ecut=    15.00 Ry     beta= 0.70
     Davidson diagonalization with overlap

---- Real-time Memory Report at c_bands before calling an iterative solver
           204 MiB given to the printing process from OS
             0 MiB allocation reported by mallinfo(arena+hblkhd)
          1087 MiB available memory on the node where the printing process lives
------------------
     ethr =  2.01E-09,  avg # of iterations =  4.0

     negative rho (up, down):  2.658E-01 0.000E+00

     total cpu time spent up to now is       36.8 secs

     total energy              =      -2.11919554 Ry
     estimated scf accuracy    <       0.00000011 Ry

     iteration # 88     ecut=    15.00 Ry     beta= 0.70
     Davidson diagonalization with overlap

---- Real-time Memory Report at c_bands before calling an iterative solver
           204 MiB given to the printing process from OS
             0 MiB allocation reported by mallinfo(arena+hblkhd)
          1087 MiB available memory on the node where the printing process lives
------------------
     ethr =  2.01E-09,  avg # of iterations =  3.0

     negative rho (up, down):  2.658E-01 0.000E+00

     total cpu time spent up to now is       37.3 secs

     total energy              =      -2.11920186 Ry
     estimated scf accuracy    <       0.00000024 Ry

     iteration # 89     ecut=    15.00 Ry     beta= 0.70
     Davidson diagonalization with overlap

---- Real-time Memory Report at c_bands before calling an iterative solver
           204 MiB given to the printing process from OS
             0 MiB allocation reported by mallinfo(arena+hblkhd)
          1087 MiB available memory on the node where the printing process lives
------------------
     ethr =  2.01E-09,  avg # of iterations =  3.0

     negative rho (up, down):  2.658E-01 0.000E+00

     total cpu time spent up to now is       37.7 secs

     total energy              =      -2.11921284 Ry
     estimated scf accuracy    <       0.00000035 Ry

     iteration # 90     ecut=    15.00 Ry     beta= 0.70
     Davidson diagonalization with overlap

---- Real-time Memory Report at c_bands before calling an iterative solver
           204 MiB given to the printing process from OS
             0 MiB allocation reported by mallinfo(arena+hblkhd)
          1087 MiB available memory on the node where the printing process lives
------------------
     ethr =  2.01E-09,  avg # of iterations =  3.0

     negative rho (up, down):  2.658E-01 0.000E+00

     total cpu time spent up to now is       38.1 secs

     total energy              =      -2.11915064 Ry
     estimated scf accuracy    <       0.00000088 Ry

     iteration # 91     ecut=    15.00 Ry     beta= 0.70
     Davidson diagonalization with overlap

---- Real-time Memory Report at c_bands before calling an iterative solver
           204 MiB given to the printing process from OS
             0 MiB allocation reported by mallinfo(arena+hblkhd)
          1087 MiB available memory on the node where the printing process lives
------------------
     ethr =  2.01E-09,  avg # of iterations =  4.0

     negative rho (up, down):  2.658E-01 0.000E+00

     total cpu time spent up to now is       38.5 secs

     total energy              =      -2.11911757 Ry
     estimated scf accuracy    <       0.00000007 Ry

     iteration # 92     ecut=    15.00 Ry     beta= 0.70
     Davidson diagonalization with overlap

---- Real-time Memory Report at c_bands before calling an iterative solver
           204 MiB given to the printing process from OS
             0 MiB allocation reported by mallinfo(arena+hblkhd)
          1087 MiB available memory on the node where the printing process lives
------------------
     ethr =  2.01E-09,  avg # of iterations =  4.0

     negative rho (up, down):  2.658E-01 0.000E+00

     total cpu time spent up to now is       38.9 secs

     total energy              =      -2.11906049 Ry
     estimated scf accuracy    <       0.00000347 Ry

     iteration # 93     ecut=    15.00 Ry     beta= 0.70
     Davidson diagonalization with overlap

---- Real-time Memory Report at c_bands before calling an iterative solver
           204 MiB given to the printing process from OS
             0 MiB allocation reported by mallinfo(arena+hblkhd)
          1087 MiB available memory on the node where the printing process lives
------------------
     ethr =  2.01E-09,  avg # of iterations =  4.0

     negative rho (up, down):  2.658E-01 0.000E+00

     total cpu time spent up to now is       39.3 secs

     total energy              =      -2.11918727 Ry
     estimated scf accuracy    <       0.00000006 Ry

     iteration # 94     ecut=    15.00 Ry     beta= 0.70
     Davidson diagonalization with overlap

---- Real-time Memory Report at c_bands before calling an iterative solver
           204 MiB given to the printing process from OS
             0 MiB allocation reported by mallinfo(arena+hblkhd)
          1087 MiB available memory on the node where the printing process lives
------------------
     ethr =  2.01E-09,  avg # of iterations =  3.0

     negative rho (up, down):  2.658E-01 0.000E+00

     total cpu time spent up to now is       39.7 secs

     total energy              =      -2.11918732 Ry
     estimated scf accuracy    <       0.00000003 Ry

     iteration # 95     ecut=    15.00 Ry     beta= 0.70
     Davidson diagonalization with overlap

---- Real-time Memory Report at c_bands before calling an iterative solver
           204 MiB given to the printing process from OS
             0 MiB allocation reported by mallinfo(arena+hblkhd)
          1087 MiB available memory on the node where the printing process lives
------------------
     ethr =  1.35E-09,  avg # of iterations =  4.0

     negative rho (up, down):  2.658E-01 0.000E+00

     total cpu time spent up to now is       40.1 secs

     total energy              =      -2.11920945 Ry
     estimated scf accuracy    <       0.00000476 Ry

     iteration # 96     ecut=    15.00 Ry     beta= 0.70
     Davidson diagonalization with overlap

---- Real-time Memory Report at c_bands before calling an iterative solver
           204 MiB given to the printing process from OS
             0 MiB allocation reported by mallinfo(arena+hblkhd)
          1087 MiB available memory on the node where the printing process lives
------------------
     ethr =  1.35E-09,  avg # of iterations =  4.0

     negative rho (up, down):  2.658E-01 0.000E+00

     total cpu time spent up to now is       40.6 secs

     total energy              =      -2.11924690 Ry
     estimated scf accuracy    <       0.00000123 Ry

     iteration # 97     ecut=    15.00 Ry     beta= 0.70
     Davidson diagonalization with overlap

---- Real-time Memory Report at c_bands before calling an iterative solver
           204 MiB given to the printing process from OS
             0 MiB allocation reported by mallinfo(arena+hblkhd)
          1087 MiB available memory on the node where the printing process lives
------------------
     ethr =  1.35E-09,  avg # of iterations =  3.0

     negative rho (up, down):  2.658E-01 0.000E+00

     total cpu time spent up to now is       41.0 secs

     total energy              =      -2.11923714 Ry
     estimated scf accuracy    <       0.00000169 Ry

     iteration # 98     ecut=    15.00 Ry     beta= 0.70
     Davidson diagonalization with overlap

---- Real-time Memory Report at c_bands before calling an iterative solver
           204 MiB given to the printing process from OS
             0 MiB allocation reported by mallinfo(arena+hblkhd)
          1087 MiB available memory on the node where the printing process lives
------------------
     ethr =  1.35E-09,  avg # of iterations =  3.0

     negative rho (up, down):  2.658E-01 0.000E+00

     total cpu time spent up to now is       41.4 secs

     total energy              =      -2.11922936 Ry
     estimated scf accuracy    <       0.00000108 Ry

     iteration # 99     ecut=    15.00 Ry     beta= 0.70
     Davidson diagonalization with overlap

---- Real-time Memory Report at c_bands before calling an iterative solver
           204 MiB given to the printing process from OS
             0 MiB allocation reported by mallinfo(arena+hblkhd)
          1087 MiB available memory on the node where the printing process lives
------------------
     ethr =  1.35E-09,  avg # of iterations =  3.0

     negative rho (up, down):  2.658E-01 0.000E+00

     total cpu time spent up to now is       41.8 secs

     total energy              =      -2.11919665 Ry
     estimated scf accuracy    <       0.00000079 Ry

     iteration #100     ecut=    15.00 Ry     beta= 0.70
     Davidson diagonalization with overlap

---- Real-time Memory Report at c_bands before calling an iterative solver
           204 MiB given to the printing process from OS
             0 MiB allocation reported by mallinfo(arena+hblkhd)
          1087 MiB available memory on the node where the printing process lives
------------------
     ethr =  1.35E-09,  avg # of iterations =  4.0

     negative rho (up, down):  2.658E-01 0.000E+00

     total cpu time spent up to now is       42.2 secs

     total energy              =      -2.11920963 Ry
     estimated scf accuracy    <       0.00000004 Ry

     End of self-consistent calculation

     convergence NOT achieved after 100 iterations: stopping

     Writing config to output data dir ./.save/
     Message from routine punch:
     wavefunctions written to file

     init_run     :      0.36s CPU      0.38s WALL (       1 calls)
     electrons    :     41.72s CPU     41.82s WALL (       1 calls)

     Called by init_run:
     wfcinit      :      0.03s CPU      0.03s WALL (       1 calls)
     wfcinit:atom :      0.00s CPU      0.00s WALL (       1 calls)
     wfcinit:wfcr :      0.03s CPU      0.03s WALL (       1 calls)
     potinit      :      0.22s CPU      0.23s WALL (       1 calls)
     hinit0       :      0.02s CPU      0.02s WALL (       1 calls)

     Called by electrons:
     c_bands      :      9.66s CPU      9.68s WALL (     100 calls)
     sum_band     :      4.65s CPU      4.66s WALL (     100 calls)
     v_of_rho     :     20.60s CPU     20.63s WALL (     101 calls)
     v_h          :      1.16s CPU      1.16s WALL (     101 calls)
     v_xc         :     19.44s CPU     19.47s WALL (     101 calls)
     newd         :      1.52s CPU      1.52s WALL (     101 calls)
     mix_rho      :      5.09s CPU      5.12s WALL (     100 calls)

     Called by c_bands:
     init_us_2    :      0.14s CPU      0.14s WALL (     201 calls)
     init_us_2:cp :      0.14s CPU      0.14s WALL (     201 calls)
     cegterg      :      9.57s CPU      9.58s WALL (     100 calls)

     Called by sum_band:
     sum_band:wei :      0.00s CPU      0.00s WALL (     100 calls)
     sum_band:loo :      1.37s CPU      1.38s WALL (     100 calls)
     sum_band:buf :      0.00s CPU      0.00s WALL (     100 calls)
     sum_band:ini :      0.07s CPU      0.07s WALL (     100 calls)
     sum_band:cal :      0.02s CPU      0.02s WALL (     100 calls)
     sum_band:bec :      0.00s CPU      0.00s WALL (     100 calls)
     addusdens    :      0.43s CPU      0.43s WALL (     100 calls)
     addusd:skk   :      0.13s CPU      0.13s WALL (     100 calls)
     addusd:dgemm :      0.09s CPU      0.09s WALL (     100 calls)
     addusd:qvan2 :      0.11s CPU      0.11s WALL (     100 calls)

     Called by *egterg:
     cdiaghg      :      0.01s CPU      0.01s WALL (     487 calls)
     cegterg:over :      0.12s CPU      0.12s WALL (     387 calls)
     cegterg:upda :      0.10s CPU      0.10s WALL (     387 calls)
     cegterg:last :      0.20s CPU      0.20s WALL (     284 calls)
     h_psi        :      8.96s CPU      8.97s WALL (     488 calls)
     s_psi        :      0.05s CPU      0.05s WALL (     488 calls)
     g_psi        :      0.04s CPU      0.04s WALL (     387 calls)

     Called by h_psi:
     h_psi:calbec :      0.07s CPU      0.07s WALL (     488 calls)
     vloc_psi     :      8.80s CPU      8.82s WALL (     488 calls)
     add_vuspsi   :      0.05s CPU      0.05s WALL (     488 calls)

     General routines
     calbec       :      0.08s CPU      0.09s WALL (     588 calls)
     fft          :     10.14s CPU     10.15s WALL (    1111 calls)
     ffts         :      0.93s CPU      0.93s WALL (     100 calls)
     fftw         :      9.12s CPU      9.15s WALL (    1594 calls)
     davcio       :      0.01s CPU      0.02s WALL (      19 calls)


     PWSCF        :     42.12s CPU     42.25s WALL


   This run was terminated on:  22:21:28  28Feb2022            

=------------------------------------------------------------------------------=
   JOB DONE.
=------------------------------------------------------------------------------=
