
     Program PWSCF v.7.0 starts on 28Feb2022 at 22:17:35 

     This program is part of the open-source Quantum ESPRESSO suite
     for quantum simulation of materials; please cite
         "P. Giannozzi et al., J. Phys.:Condens. Matter 21 395502 (2009);
         "P. Giannozzi et al., J. Phys.:Condens. Matter 29 465901 (2017);
         "P. Giannozzi et al., J. Chem. Phys. 152 154105 (2020);
          URL http://www.quantum-espresso.org", 
     in publications or presentations arising from this work. More details at
     http://www.quantum-espresso.org/quote

     Serial version
     1284 MiB available memory on the printing compute node when the environment starts

     Waiting for input...
     Reading input from standard input

     Current dimensions of program PWSCF are:
     Max number of different atomic species (ntypx) = 10
     Max number of k-points (npk) =  40000
     Max angular momentum in pseudopotentials (lmaxx) =  4

    ============================================================
    |  pseudopotential report for atomic species:  1           |
    |        pseudo potential version   7   3   2              |
    ------------------------------------------------------------
    |  hydrogen            PBE                  exchange-corr  |
    |  z =   1.    zv( 1) =   1.    exfact =   5.00000         |
    |  ifpcor =  0           atomic energy =  -0.91772 Ry      |
    |  index    orbital      occupation    energy              |
    |    1        100           1.00       -0.48               |
    |  rinner =  0.5000                                        |
    |    new generation scheme:                                |
    |    nbeta =  1     kkbeta =  271     rcloc =    0.6000    |
    |    ibeta    l     epsilon   rcut                         |
    |      1       0      -0.48   0.80                         |
    ============================================================

     IMPORTANT: XC functional enforced from input :
     Exchange-correlation= BLYP
                           (   1   3   1   3   0   0   0)
     Any further DFT definition will be discarded
     Please, verify this is what you really want


     G-vector sticks info
     --------------------
     sticks:   dense  smooth     PW     G-vecs:    dense   smooth      PW
     Sum        2869    2869    793               115313   115313   17071

     Using Slab Decomposition



     bravais-lattice index     =            1
     lattice parameter (alat)  =      30.0000  a.u.
     unit-cell volume          =   27000.0000 (a.u.)^3
     number of atoms/cell      =            2
     number of atomic types    =            1
     number of electrons       =         2.00
     number of Kohn-Sham states=            2
     kinetic-energy cutoff     =      10.0000  Ry
     charge density cutoff     =      40.0000  Ry
     scf convergence threshold =      1.0E-08
     mixing beta               =       0.7000
     number of iterations used =            8  plain     mixing
     Exchange-correlation= BLYP
                           (   1   3   1   3   0   0   0)

     celldm(1)=  30.000000  celldm(2)=   0.000000  celldm(3)=   0.000000
     celldm(4)=   0.000000  celldm(5)=   0.000000  celldm(6)=   0.000000

     crystal axes: (cart. coord. in units of alat)
               a(1) = (   1.000000   0.000000   0.000000 )  
               a(2) = (   0.000000   1.000000   0.000000 )  
               a(3) = (   0.000000   0.000000   1.000000 )  

     reciprocal axes: (cart. coord. in units 2 pi/alat)
               b(1) = (  1.000000  0.000000  0.000000 )  
               b(2) = (  0.000000  1.000000  0.000000 )  
               b(3) = (  0.000000  0.000000  1.000000 )  


     PseudoPot. # 1 for hy read from file:
     /root/q-e/pseudo/H_US.van
     MD5 check sum: a9a9bfe98ff56cf4de197d71fc46bb44
     Pseudo is Ultrasoft, Zval =  1.0
     Generated by Vanderbilt code, v. 7.3.2
     Using radial grid of  399 points,  1 beta functions with: 
                l(1) =   0
     Q(r) pseudized with  8 coefficients,  rinner =    0.500

     atomic species   valence    mass     pseudopotential
        H              1.00     1.00784     hy( 1.00)

      8 Sym. Ops. (no inversion) found


                                    s                        frac. trans.

      isym =  1     identity                                     

 cryst.   s( 1) = (     1          0          0      )
                  (     0          1          0      )
                  (     0          0          1      )

 cart.    s( 1) = (  1.0000000  0.0000000  0.0000000 )
                  (  0.0000000  1.0000000  0.0000000 )
                  (  0.0000000  0.0000000  1.0000000 )


      isym =  2     180 deg rotation - cart. axis [1,0,0]        

 cryst.   s( 2) = (     1          0          0      )
                  (     0         -1          0      )
                  (     0          0         -1      )

 cart.    s( 2) = (  1.0000000  0.0000000  0.0000000 )
                  (  0.0000000 -1.0000000  0.0000000 )
                  (  0.0000000  0.0000000 -1.0000000 )


      isym =  3      90 deg rotation - cart. axis [-1,0,0]       

 cryst.   s( 3) = (     1          0          0      )
                  (     0          0         -1      )
                  (     0          1          0      )

 cart.    s( 3) = (  1.0000000  0.0000000  0.0000000 )
                  (  0.0000000  0.0000000  1.0000000 )
                  (  0.0000000 -1.0000000  0.0000000 )


      isym =  4      90 deg rotation - cart. axis [1,0,0]        

 cryst.   s( 4) = (     1          0          0      )
                  (     0          0          1      )
                  (     0         -1          0      )

 cart.    s( 4) = (  1.0000000  0.0000000  0.0000000 )
                  (  0.0000000  0.0000000 -1.0000000 )
                  (  0.0000000  1.0000000  0.0000000 )


      isym =  5     inv. 180 deg rotation - cart. axis [0,0,1]   

 cryst.   s( 5) = (     1          0          0      )
                  (     0          1          0      )
                  (     0          0         -1      )

 cart.    s( 5) = (  1.0000000  0.0000000  0.0000000 )
                  (  0.0000000  1.0000000  0.0000000 )
                  (  0.0000000  0.0000000 -1.0000000 )


      isym =  6     inv. 180 deg rotation - cart. axis [0,1,0]   

 cryst.   s( 6) = (     1          0          0      )
                  (     0         -1          0      )
                  (     0          0          1      )

 cart.    s( 6) = (  1.0000000  0.0000000  0.0000000 )
                  (  0.0000000 -1.0000000  0.0000000 )
                  (  0.0000000  0.0000000  1.0000000 )


      isym =  7     inv. 180 deg rotation - cart. axis [0,1,1]   

 cryst.   s( 7) = (     1          0          0      )
                  (     0          0         -1      )
                  (     0         -1          0      )

 cart.    s( 7) = (  1.0000000  0.0000000  0.0000000 )
                  (  0.0000000  0.0000000 -1.0000000 )
                  (  0.0000000 -1.0000000  0.0000000 )


      isym =  8     inv. 180 deg rotation - cart. axis [0,1,-1]  

 cryst.   s( 8) = (     1          0          0      )
                  (     0          0          1      )
                  (     0          1          0      )

 cart.    s( 8) = (  1.0000000  0.0000000  0.0000000 )
                  (  0.0000000  0.0000000  1.0000000 )
                  (  0.0000000  1.0000000  0.0000000 )


     point group C_4v (4mm) 
     there are  5 classes
     the character table:

       E     2C4   C2    2s_v  2s_d 
A_1    1.00  1.00  1.00  1.00  1.00
A_2    1.00  1.00  1.00 -1.00 -1.00
B_1    1.00 -1.00  1.00  1.00 -1.00
B_2    1.00 -1.00  1.00 -1.00  1.00
E      2.00  0.00 -2.00  0.00  0.00

     the symmetry operations in each class and the name of the first element:

     E        1
          identity                                               
     2C4      3    4
           90 deg rotation - cart. axis [-1,0,0]                 
     C2       2
          180 deg rotation - cart. axis [1,0,0]                  
     2s_v     5    6
          inv. 180 deg rotation - cart. axis [0,0,1]             
     2s_d     7    8
          inv. 180 deg rotation - cart. axis [0,1,1]             

   Cartesian axes

     site n.     atom                  positions (alat units)
         1           H   tau(   1) = (   0.0000000   0.0000000   0.0000000  )
         2           H   tau(   2) = (   0.0944863   0.0000000   0.0000000  )

   Crystallographic axes

     site n.     atom                  positions (cryst. coord.)
         1           H   tau(   1) = (  0.0000000  0.0000000  0.0000000  )
         2           H   tau(   2) = (  0.0944863  0.0000000  0.0000000  )

     number of k points=     1
                       cart. coord. in units 2pi/alat
        k(    1) = (  -0.5000000  -0.5000000  -0.5000000), wk =   2.0000000

                       cryst. coord.
        k(    1) = (  -0.5000000  -0.5000000  -0.5000000), wk =   2.0000000

     Dense  grid:   115313 G-vectors     FFT dimensions: (  64,  64,  64)

     Dynamical RAM for                 wfc:       0.44 MB

     Dynamical RAM for     wfc (w. buffer):       0.44 MB

     Dynamical RAM for           str. fact:       1.76 MB

     Dynamical RAM for           local pot:       0.00 MB

     Dynamical RAM for          nlocal pot:       0.44 MB

     Dynamical RAM for                qrad:       0.00 MB

     Dynamical RAM for          rho,v,vnew:      11.28 MB

     Dynamical RAM for               rhoin:       3.76 MB

     Dynamical RAM for            rho*nmix:      28.15 MB

     Dynamical RAM for           G-vectors:       7.48 MB

     Dynamical RAM for          h,s,v(r/c):       0.00 MB

     Dynamical RAM for          <psi|beta>:       0.00 MB

     Dynamical RAM for                 psi:       0.88 MB

     Dynamical RAM for                hpsi:       0.88 MB

     Dynamical RAM for                spsi:       0.88 MB

     Dynamical RAM for      wfcinit/wfcrot:       0.88 MB

     Dynamical RAM for           addusdens:      10.56 MB

     Estimated static dynamical RAM per process >      38.68 MB

     Estimated max dynamical RAM per process >      77.39 MB

     Initial potential from superposition of free atoms

     starting charge       2.0000, renormalised to       2.0000

     negative rho (up, down):  1.985E-01 0.000E+00
     Starting wfcs are    2 randomized atomic wfcs

     total cpu time spent up to now is        0.2 secs

     Self-consistent Calculation

     iteration #  1     ecut=    10.00 Ry     beta= 0.70
     Davidson diagonalization with overlap

---- Real-time Memory Report at c_bands before calling an iterative solver
            81 MiB given to the printing process from OS
             0 MiB allocation reported by mallinfo(arena+hblkhd)
          1235 MiB available memory on the node where the printing process lives
------------------
     ethr =  1.00E-02,  avg # of iterations =  2.0

     Threshold (ethr) on eigenvalues was too large:
     Diagonalizing with lowered threshold

     Davidson diagonalization with overlap

---- Real-time Memory Report at c_bands before calling an iterative solver
            81 MiB given to the printing process from OS
             0 MiB allocation reported by mallinfo(arena+hblkhd)
          1228 MiB available memory on the node where the printing process lives
------------------
     ethr =  9.06E-04,  avg # of iterations =  1.0

     negative rho (up, down):  1.865E-01 0.000E+00

     total cpu time spent up to now is        0.5 secs

     total energy              =      -2.05635313 Ry
     estimated scf accuracy    <       0.01864071 Ry

     iteration #  2     ecut=    10.00 Ry     beta= 0.70
     Davidson diagonalization with overlap

---- Real-time Memory Report at c_bands before calling an iterative solver
           101 MiB given to the printing process from OS
             0 MiB allocation reported by mallinfo(arena+hblkhd)
          1195 MiB available memory on the node where the printing process lives
------------------
     ethr =  9.32E-04,  avg # of iterations =  1.0

     negative rho (up, down):  1.793E-01 0.000E+00

     total cpu time spent up to now is        0.7 secs

     total energy              =      -2.06083902 Ry
     estimated scf accuracy    <       0.00075980 Ry

     iteration #  3     ecut=    10.00 Ry     beta= 0.70
     Davidson diagonalization with overlap

---- Real-time Memory Report at c_bands before calling an iterative solver
           105 MiB given to the printing process from OS
             0 MiB allocation reported by mallinfo(arena+hblkhd)
          1192 MiB available memory on the node where the printing process lives
------------------
     ethr =  3.80E-05,  avg # of iterations =  2.0

     negative rho (up, down):  1.766E-01 0.000E+00

     total cpu time spent up to now is        0.9 secs

     total energy              =      -2.06247586 Ry
     estimated scf accuracy    <       0.00001566 Ry

     iteration #  4     ecut=    10.00 Ry     beta= 0.70
     Davidson diagonalization with overlap

---- Real-time Memory Report at c_bands before calling an iterative solver
           108 MiB given to the printing process from OS
             0 MiB allocation reported by mallinfo(arena+hblkhd)
          1188 MiB available memory on the node where the printing process lives
------------------
     ethr =  7.83E-07,  avg # of iterations =  5.0

     negative rho (up, down):  1.765E-01 0.000E+00

     total cpu time spent up to now is        1.2 secs

     total energy              =      -2.06250556 Ry
     estimated scf accuracy    <       0.00000573 Ry

     iteration #  5     ecut=    10.00 Ry     beta= 0.70
     Davidson diagonalization with overlap

---- Real-time Memory Report at c_bands before calling an iterative solver
           112 MiB given to the printing process from OS
             0 MiB allocation reported by mallinfo(arena+hblkhd)
          1185 MiB available memory on the node where the printing process lives
------------------
     ethr =  2.86E-07,  avg # of iterations =  2.0

     negative rho (up, down):  1.766E-01 0.000E+00

     total cpu time spent up to now is        1.4 secs

     total energy              =      -2.06240058 Ry
     estimated scf accuracy    <       0.00000043 Ry

     iteration #  6     ecut=    10.00 Ry     beta= 0.70
     Davidson diagonalization with overlap

---- Real-time Memory Report at c_bands before calling an iterative solver
           115 MiB given to the printing process from OS
             0 MiB allocation reported by mallinfo(arena+hblkhd)
          1181 MiB available memory on the node where the printing process lives
------------------
     ethr =  2.15E-08,  avg # of iterations =  4.0

     negative rho (up, down):  1.766E-01 0.000E+00

     total cpu time spent up to now is        1.6 secs

     total energy              =      -2.06243737 Ry
     estimated scf accuracy    <       0.00000130 Ry

     iteration #  7     ecut=    10.00 Ry     beta= 0.70
     Davidson diagonalization with overlap

---- Real-time Memory Report at c_bands before calling an iterative solver
           119 MiB given to the printing process from OS
             0 MiB allocation reported by mallinfo(arena+hblkhd)
          1178 MiB available memory on the node where the printing process lives
------------------
     ethr =  2.15E-08,  avg # of iterations =  4.0

     negative rho (up, down):  1.765E-01 0.000E+00

     total cpu time spent up to now is        1.9 secs

     total energy              =      -2.06248501 Ry
     estimated scf accuracy    <       0.00000019 Ry

     iteration #  8     ecut=    10.00 Ry     beta= 0.70
     Davidson diagonalization with overlap

---- Real-time Memory Report at c_bands before calling an iterative solver
           123 MiB given to the printing process from OS
             0 MiB allocation reported by mallinfo(arena+hblkhd)
          1174 MiB available memory on the node where the printing process lives
------------------
     ethr =  9.37E-09,  avg # of iterations =  4.0

     negative rho (up, down):  1.765E-01 0.000E+00

     total cpu time spent up to now is        2.1 secs

     total energy              =      -2.06249127 Ry
     estimated scf accuracy    <       0.00000015 Ry

     iteration #  9     ecut=    10.00 Ry     beta= 0.70
     Davidson diagonalization with overlap

---- Real-time Memory Report at c_bands before calling an iterative solver
           126 MiB given to the printing process from OS
             0 MiB allocation reported by mallinfo(arena+hblkhd)
          1171 MiB available memory on the node where the printing process lives
------------------
     ethr =  7.51E-09,  avg # of iterations =  3.0

     negative rho (up, down):  1.765E-01 0.000E+00

     total cpu time spent up to now is        2.3 secs

     total energy              =      -2.06248211 Ry
     estimated scf accuracy    <       0.00000047 Ry

     iteration # 10     ecut=    10.00 Ry     beta= 0.70
     Davidson diagonalization with overlap

---- Real-time Memory Report at c_bands before calling an iterative solver
           129 MiB given to the printing process from OS
             0 MiB allocation reported by mallinfo(arena+hblkhd)
          1167 MiB available memory on the node where the printing process lives
------------------
     ethr =  7.51E-09,  avg # of iterations =  3.0

     negative rho (up, down):  1.765E-01 0.000E+00

     total cpu time spent up to now is        2.5 secs

     total energy              =      -2.06246861 Ry
     estimated scf accuracy    <       0.00000003 Ry

     iteration # 11     ecut=    10.00 Ry     beta= 0.70
     Davidson diagonalization with overlap

---- Real-time Memory Report at c_bands before calling an iterative solver
           129 MiB given to the printing process from OS
             0 MiB allocation reported by mallinfo(arena+hblkhd)
          1167 MiB available memory on the node where the printing process lives
------------------
     ethr =  1.63E-09,  avg # of iterations =  4.0

     negative rho (up, down):  1.766E-01 0.000E+00

     total cpu time spent up to now is        2.8 secs

     total energy              =      -2.06246024 Ry
     estimated scf accuracy    <       0.00000021 Ry

     iteration # 12     ecut=    10.00 Ry     beta= 0.70
     Davidson diagonalization with overlap

---- Real-time Memory Report at c_bands before calling an iterative solver
           129 MiB given to the printing process from OS
             0 MiB allocation reported by mallinfo(arena+hblkhd)
          1167 MiB available memory on the node where the printing process lives
------------------
     ethr =  1.63E-09,  avg # of iterations =  4.0

     negative rho (up, down):  1.766E-01 0.000E+00

     total cpu time spent up to now is        3.0 secs

     total energy              =      -2.06245881 Ry
     estimated scf accuracy    <       0.00000011 Ry

     iteration # 13     ecut=    10.00 Ry     beta= 0.70
     Davidson diagonalization with overlap

---- Real-time Memory Report at c_bands before calling an iterative solver
           129 MiB given to the printing process from OS
             0 MiB allocation reported by mallinfo(arena+hblkhd)
          1167 MiB available memory on the node where the printing process lives
------------------
     ethr =  1.63E-09,  avg # of iterations =  3.0

     negative rho (up, down):  1.766E-01 0.000E+00

     total cpu time spent up to now is        3.3 secs

     total energy              =      -2.06246959 Ry
     estimated scf accuracy    <       0.00000005 Ry

     iteration # 14     ecut=    10.00 Ry     beta= 0.70
     Davidson diagonalization with overlap

---- Real-time Memory Report at c_bands before calling an iterative solver
           129 MiB given to the printing process from OS
             0 MiB allocation reported by mallinfo(arena+hblkhd)
          1167 MiB available memory on the node where the printing process lives
------------------
     ethr =  1.63E-09,  avg # of iterations =  3.0

     negative rho (up, down):  1.766E-01 0.000E+00

     total cpu time spent up to now is        3.5 secs

     total energy              =      -2.06246973 Ry
     estimated scf accuracy    <       0.00000003 Ry

     iteration # 15     ecut=    10.00 Ry     beta= 0.70
     Davidson diagonalization with overlap

---- Real-time Memory Report at c_bands before calling an iterative solver
           129 MiB given to the printing process from OS
             0 MiB allocation reported by mallinfo(arena+hblkhd)
          1167 MiB available memory on the node where the printing process lives
------------------
     ethr =  1.63E-09,  avg # of iterations =  1.0

     negative rho (up, down):  1.765E-01 0.000E+00

     total cpu time spent up to now is        3.7 secs

     total energy              =      -2.06244330 Ry
     estimated scf accuracy    <       0.00000003 Ry

     iteration # 16     ecut=    10.00 Ry     beta= 0.70
     Davidson diagonalization with overlap

---- Real-time Memory Report at c_bands before calling an iterative solver
           129 MiB given to the printing process from OS
             0 MiB allocation reported by mallinfo(arena+hblkhd)
          1167 MiB available memory on the node where the printing process lives
------------------
     ethr =  1.63E-09,  avg # of iterations =  5.0

     negative rho (up, down):  1.765E-01 0.000E+00

     total cpu time spent up to now is        3.9 secs

     total energy              =      -2.06247997 Ry
     estimated scf accuracy    <       0.00000116 Ry

     iteration # 17     ecut=    10.00 Ry     beta= 0.70
     Davidson diagonalization with overlap

---- Real-time Memory Report at c_bands before calling an iterative solver
           129 MiB given to the printing process from OS
             0 MiB allocation reported by mallinfo(arena+hblkhd)
          1167 MiB available memory on the node where the printing process lives
------------------
     ethr =  1.63E-09,  avg # of iterations =  6.0

     negative rho (up, down):  1.765E-01 0.000E+00

     total cpu time spent up to now is        4.2 secs

     total energy              =      -2.06247747 Ry
     estimated scf accuracy    <       0.00000036 Ry

     iteration # 18     ecut=    10.00 Ry     beta= 0.70
     Davidson diagonalization with overlap

---- Real-time Memory Report at c_bands before calling an iterative solver
           129 MiB given to the printing process from OS
             0 MiB allocation reported by mallinfo(arena+hblkhd)
          1167 MiB available memory on the node where the printing process lives
------------------
     ethr =  1.63E-09,  avg # of iterations =  5.0

     negative rho (up, down):  1.765E-01 0.000E+00

     total cpu time spent up to now is        4.4 secs

     total energy              =      -2.06245684 Ry
     estimated scf accuracy    <       0.00000020 Ry

     iteration # 19     ecut=    10.00 Ry     beta= 0.70
     Davidson diagonalization with overlap

---- Real-time Memory Report at c_bands before calling an iterative solver
           129 MiB given to the printing process from OS
             0 MiB allocation reported by mallinfo(arena+hblkhd)
          1167 MiB available memory on the node where the printing process lives
------------------
     ethr =  1.63E-09,  avg # of iterations =  4.0

     negative rho (up, down):  1.765E-01 0.000E+00

     total cpu time spent up to now is        4.7 secs

     total energy              =      -2.06246278 Ry
     estimated scf accuracy    <       0.00000037 Ry

     iteration # 20     ecut=    10.00 Ry     beta= 0.70
     Davidson diagonalization with overlap

---- Real-time Memory Report at c_bands before calling an iterative solver
           129 MiB given to the printing process from OS
             0 MiB allocation reported by mallinfo(arena+hblkhd)
          1167 MiB available memory on the node where the printing process lives
------------------
     ethr =  1.63E-09,  avg # of iterations =  2.0

     negative rho (up, down):  1.766E-01 0.000E+00

     total cpu time spent up to now is        4.9 secs

     total energy              =      -2.06246231 Ry
     estimated scf accuracy    <       0.00000039 Ry

     iteration # 21     ecut=    10.00 Ry     beta= 0.70
     Davidson diagonalization with overlap

---- Real-time Memory Report at c_bands before calling an iterative solver
           129 MiB given to the printing process from OS
             0 MiB allocation reported by mallinfo(arena+hblkhd)
          1167 MiB available memory on the node where the printing process lives
------------------
     ethr =  1.63E-09,  avg # of iterations =  4.0

     negative rho (up, down):  1.766E-01 0.000E+00

     total cpu time spent up to now is        5.1 secs

     total energy              =      -2.06245460 Ry
     estimated scf accuracy    <       0.00000012 Ry

     iteration # 22     ecut=    10.00 Ry     beta= 0.70
     Davidson diagonalization with overlap

---- Real-time Memory Report at c_bands before calling an iterative solver
           129 MiB given to the printing process from OS
             0 MiB allocation reported by mallinfo(arena+hblkhd)
          1167 MiB available memory on the node where the printing process lives
------------------
     ethr =  1.63E-09,  avg # of iterations =  4.0

     negative rho (up, down):  1.765E-01 0.000E+00

     total cpu time spent up to now is        5.4 secs

     total energy              =      -2.06246836 Ry
     estimated scf accuracy    <       0.00000019 Ry

     iteration # 23     ecut=    10.00 Ry     beta= 0.70
     Davidson diagonalization with overlap

---- Real-time Memory Report at c_bands before calling an iterative solver
           129 MiB given to the printing process from OS
             0 MiB allocation reported by mallinfo(arena+hblkhd)
          1167 MiB available memory on the node where the printing process lives
------------------
     ethr =  1.63E-09,  avg # of iterations =  5.0

     negative rho (up, down):  1.765E-01 0.000E+00

     total cpu time spent up to now is        5.6 secs

     total energy              =      -2.06247831 Ry
     estimated scf accuracy    <       0.00000009 Ry

     iteration # 24     ecut=    10.00 Ry     beta= 0.70
     Davidson diagonalization with overlap

---- Real-time Memory Report at c_bands before calling an iterative solver
           129 MiB given to the printing process from OS
             0 MiB allocation reported by mallinfo(arena+hblkhd)
          1167 MiB available memory on the node where the printing process lives
------------------
     ethr =  1.63E-09,  avg # of iterations =  3.0

     negative rho (up, down):  1.766E-01 0.000E+00

     total cpu time spent up to now is        5.8 secs

     total energy              =      -2.06246363 Ry
     estimated scf accuracy    <       0.00000009 Ry

     iteration # 25     ecut=    10.00 Ry     beta= 0.70
     Davidson diagonalization with overlap

---- Real-time Memory Report at c_bands before calling an iterative solver
           129 MiB given to the printing process from OS
             0 MiB allocation reported by mallinfo(arena+hblkhd)
          1167 MiB available memory on the node where the printing process lives
------------------
     ethr =  1.63E-09,  avg # of iterations =  3.0

     negative rho (up, down):  1.765E-01 0.000E+00

     total cpu time spent up to now is        6.1 secs

     total energy              =      -2.06244058 Ry
     estimated scf accuracy    <       0.00000019 Ry

     iteration # 26     ecut=    10.00 Ry     beta= 0.70
     Davidson diagonalization with overlap

---- Real-time Memory Report at c_bands before calling an iterative solver
           129 MiB given to the printing process from OS
             0 MiB allocation reported by mallinfo(arena+hblkhd)
          1167 MiB available memory on the node where the printing process lives
------------------
     ethr =  1.63E-09,  avg # of iterations =  5.0

     negative rho (up, down):  1.765E-01 0.000E+00

     total cpu time spent up to now is        6.3 secs

     total energy              =      -2.06244502 Ry
     estimated scf accuracy    <       0.00000121 Ry

     iteration # 27     ecut=    10.00 Ry     beta= 0.70
     Davidson diagonalization with overlap

---- Real-time Memory Report at c_bands before calling an iterative solver
           129 MiB given to the printing process from OS
             0 MiB allocation reported by mallinfo(arena+hblkhd)
          1167 MiB available memory on the node where the printing process lives
------------------
     ethr =  1.63E-09,  avg # of iterations =  5.0

     negative rho (up, down):  1.765E-01 0.000E+00

     total cpu time spent up to now is        6.6 secs

     total energy              =      -2.06246651 Ry
     estimated scf accuracy    <       0.00000045 Ry

     iteration # 28     ecut=    10.00 Ry     beta= 0.70
     Davidson diagonalization with overlap

---- Real-time Memory Report at c_bands before calling an iterative solver
           129 MiB given to the printing process from OS
             0 MiB allocation reported by mallinfo(arena+hblkhd)
          1167 MiB available memory on the node where the printing process lives
------------------
     ethr =  1.63E-09,  avg # of iterations =  3.0

     negative rho (up, down):  1.765E-01 0.000E+00

     total cpu time spent up to now is        6.8 secs

     total energy              =      -2.06248884 Ry
     estimated scf accuracy    <       0.00000029 Ry

     iteration # 29     ecut=    10.00 Ry     beta= 0.70
     Davidson diagonalization with overlap

---- Real-time Memory Report at c_bands before calling an iterative solver
           129 MiB given to the printing process from OS
             0 MiB allocation reported by mallinfo(arena+hblkhd)
          1167 MiB available memory on the node where the printing process lives
------------------
     ethr =  1.63E-09,  avg # of iterations =  5.0

     negative rho (up, down):  1.765E-01 0.000E+00

     total cpu time spent up to now is        7.1 secs

     total energy              =      -2.06250802 Ry
     estimated scf accuracy    <       0.00000041 Ry

     iteration # 30     ecut=    10.00 Ry     beta= 0.70
     Davidson diagonalization with overlap

---- Real-time Memory Report at c_bands before calling an iterative solver
           129 MiB given to the printing process from OS
             0 MiB allocation reported by mallinfo(arena+hblkhd)
          1167 MiB available memory on the node where the printing process lives
------------------
     ethr =  1.63E-09,  avg # of iterations =  3.0

     negative rho (up, down):  1.765E-01 0.000E+00

     total cpu time spent up to now is        7.3 secs

     total energy              =      -2.06248394 Ry
     estimated scf accuracy    <       0.00000043 Ry

     iteration # 31     ecut=    10.00 Ry     beta= 0.70
     Davidson diagonalization with overlap

---- Real-time Memory Report at c_bands before calling an iterative solver
           129 MiB given to the printing process from OS
             0 MiB allocation reported by mallinfo(arena+hblkhd)
          1167 MiB available memory on the node where the printing process lives
------------------
     ethr =  1.63E-09,  avg # of iterations =  5.0

     negative rho (up, down):  1.765E-01 0.000E+00

     total cpu time spent up to now is        7.5 secs

     total energy              =      -2.06249632 Ry
     estimated scf accuracy    <       0.00000053 Ry

     iteration # 32     ecut=    10.00 Ry     beta= 0.70
     Davidson diagonalization with overlap

---- Real-time Memory Report at c_bands before calling an iterative solver
           129 MiB given to the printing process from OS
             0 MiB allocation reported by mallinfo(arena+hblkhd)
          1167 MiB available memory on the node where the printing process lives
------------------
     ethr =  1.63E-09,  avg # of iterations =  1.0

     negative rho (up, down):  1.765E-01 0.000E+00

     total cpu time spent up to now is        7.7 secs

     total energy              =      -2.06249463 Ry
     estimated scf accuracy    <       0.00000053 Ry

     iteration # 33     ecut=    10.00 Ry     beta= 0.70
     Davidson diagonalization with overlap

---- Real-time Memory Report at c_bands before calling an iterative solver
           129 MiB given to the printing process from OS
             0 MiB allocation reported by mallinfo(arena+hblkhd)
          1167 MiB available memory on the node where the printing process lives
------------------
     ethr =  1.63E-09,  avg # of iterations =  3.0

     negative rho (up, down):  1.765E-01 0.000E+00

     total cpu time spent up to now is        8.0 secs

     total energy              =      -2.06249349 Ry
     estimated scf accuracy    <       0.00000051 Ry

     iteration # 34     ecut=    10.00 Ry     beta= 0.70
     Davidson diagonalization with overlap

---- Real-time Memory Report at c_bands before calling an iterative solver
           129 MiB given to the printing process from OS
             0 MiB allocation reported by mallinfo(arena+hblkhd)
          1167 MiB available memory on the node where the printing process lives
------------------
     ethr =  1.63E-09,  avg # of iterations =  3.0

     negative rho (up, down):  1.765E-01 0.000E+00

     total cpu time spent up to now is        8.2 secs

     total energy              =      -2.06250024 Ry
     estimated scf accuracy    <       0.00000045 Ry

     iteration # 35     ecut=    10.00 Ry     beta= 0.70
     Davidson diagonalization with overlap

---- Real-time Memory Report at c_bands before calling an iterative solver
           129 MiB given to the printing process from OS
             0 MiB allocation reported by mallinfo(arena+hblkhd)
          1167 MiB available memory on the node where the printing process lives
------------------
     ethr =  1.63E-09,  avg # of iterations =  3.0

     negative rho (up, down):  1.765E-01 0.000E+00

     total cpu time spent up to now is        8.4 secs

     total energy              =      -2.06249155 Ry
     estimated scf accuracy    <       0.00000031 Ry

     iteration # 36     ecut=    10.00 Ry     beta= 0.70
     Davidson diagonalization with overlap

---- Real-time Memory Report at c_bands before calling an iterative solver
           129 MiB given to the printing process from OS
             0 MiB allocation reported by mallinfo(arena+hblkhd)
          1167 MiB available memory on the node where the printing process lives
------------------
     ethr =  1.63E-09,  avg # of iterations =  3.0

     negative rho (up, down):  1.765E-01 0.000E+00

     total cpu time spent up to now is        8.6 secs

     total energy              =      -2.06249992 Ry
     estimated scf accuracy    <       0.00000033 Ry

     iteration # 37     ecut=    10.00 Ry     beta= 0.70
     Davidson diagonalization with overlap

---- Real-time Memory Report at c_bands before calling an iterative solver
           129 MiB given to the printing process from OS
             0 MiB allocation reported by mallinfo(arena+hblkhd)
          1167 MiB available memory on the node where the printing process lives
------------------
     ethr =  1.63E-09,  avg # of iterations =  3.0

     negative rho (up, down):  1.766E-01 0.000E+00

     total cpu time spent up to now is        8.9 secs

     total energy              =      -2.06244164 Ry
     estimated scf accuracy    <       0.00000025 Ry

     iteration # 38     ecut=    10.00 Ry     beta= 0.70
     Davidson diagonalization with overlap

---- Real-time Memory Report at c_bands before calling an iterative solver
           129 MiB given to the printing process from OS
             0 MiB allocation reported by mallinfo(arena+hblkhd)
          1167 MiB available memory on the node where the printing process lives
------------------
     ethr =  1.63E-09,  avg # of iterations =  5.0

     negative rho (up, down):  1.766E-01 0.000E+00

     total cpu time spent up to now is        9.1 secs

     total energy              =      -2.06245524 Ry
     estimated scf accuracy    <       0.00000026 Ry

     iteration # 39     ecut=    10.00 Ry     beta= 0.70
     Davidson diagonalization with overlap

---- Real-time Memory Report at c_bands before calling an iterative solver
           129 MiB given to the printing process from OS
             0 MiB allocation reported by mallinfo(arena+hblkhd)
          1167 MiB available memory on the node where the printing process lives
------------------
     ethr =  1.63E-09,  avg # of iterations =  4.0

     negative rho (up, down):  1.765E-01 0.000E+00

     total cpu time spent up to now is        9.3 secs

     total energy              =      -2.06245470 Ry
     estimated scf accuracy    <       0.00000018 Ry

     iteration # 40     ecut=    10.00 Ry     beta= 0.70
     Davidson diagonalization with overlap

---- Real-time Memory Report at c_bands before calling an iterative solver
           129 MiB given to the printing process from OS
             0 MiB allocation reported by mallinfo(arena+hblkhd)
          1167 MiB available memory on the node where the printing process lives
------------------
     ethr =  1.63E-09,  avg # of iterations =  5.0

     negative rho (up, down):  1.766E-01 0.000E+00

     total cpu time spent up to now is        9.6 secs

     total energy              =      -2.06244835 Ry
     estimated scf accuracy    <       0.00000015 Ry

     iteration # 41     ecut=    10.00 Ry     beta= 0.70
     Davidson diagonalization with overlap

---- Real-time Memory Report at c_bands before calling an iterative solver
           129 MiB given to the printing process from OS
             0 MiB allocation reported by mallinfo(arena+hblkhd)
          1167 MiB available memory on the node where the printing process lives
------------------
     ethr =  1.63E-09,  avg # of iterations =  4.0

     negative rho (up, down):  1.766E-01 0.000E+00

     total cpu time spent up to now is        9.8 secs

     total energy              =      -2.06245953 Ry
     estimated scf accuracy    <       0.00000020 Ry

     iteration # 42     ecut=    10.00 Ry     beta= 0.70
     Davidson diagonalization with overlap

---- Real-time Memory Report at c_bands before calling an iterative solver
           129 MiB given to the printing process from OS
             0 MiB allocation reported by mallinfo(arena+hblkhd)
          1167 MiB available memory on the node where the printing process lives
------------------
     ethr =  1.63E-09,  avg # of iterations =  2.0

     negative rho (up, down):  1.765E-01 0.000E+00

     total cpu time spent up to now is       10.0 secs

     total energy              =      -2.06246546 Ry
     estimated scf accuracy    <       0.00000022 Ry

     iteration # 43     ecut=    10.00 Ry     beta= 0.70
     Davidson diagonalization with overlap

---- Real-time Memory Report at c_bands before calling an iterative solver
           129 MiB given to the printing process from OS
             0 MiB allocation reported by mallinfo(arena+hblkhd)
          1167 MiB available memory on the node where the printing process lives
------------------
     ethr =  1.63E-09,  avg # of iterations =  4.0

     negative rho (up, down):  1.765E-01 0.000E+00

     total cpu time spent up to now is       10.3 secs

     total energy              =      -2.06248261 Ry
     estimated scf accuracy    <       0.00000034 Ry

     iteration # 44     ecut=    10.00 Ry     beta= 0.70
     Davidson diagonalization with overlap

---- Real-time Memory Report at c_bands before calling an iterative solver
           129 MiB given to the printing process from OS
             0 MiB allocation reported by mallinfo(arena+hblkhd)
          1167 MiB available memory on the node where the printing process lives
------------------
     ethr =  1.63E-09,  avg # of iterations =  4.0

     negative rho (up, down):  1.765E-01 0.000E+00

     total cpu time spent up to now is       10.5 secs

     total energy              =      -2.06245445 Ry
     estimated scf accuracy    <       0.00000004 Ry

     iteration # 45     ecut=    10.00 Ry     beta= 0.70
     Davidson diagonalization with overlap

---- Real-time Memory Report at c_bands before calling an iterative solver
           129 MiB given to the printing process from OS
             0 MiB allocation reported by mallinfo(arena+hblkhd)
          1167 MiB available memory on the node where the printing process lives
------------------
     ethr =  1.63E-09,  avg # of iterations =  5.0

     negative rho (up, down):  1.766E-01 0.000E+00

     total cpu time spent up to now is       10.8 secs

     total energy              =      -2.06246010 Ry
     estimated scf accuracy    <       0.00000029 Ry

     iteration # 46     ecut=    10.00 Ry     beta= 0.70
     Davidson diagonalization with overlap

---- Real-time Memory Report at c_bands before calling an iterative solver
           129 MiB given to the printing process from OS
             0 MiB allocation reported by mallinfo(arena+hblkhd)
          1167 MiB available memory on the node where the printing process lives
------------------
     ethr =  1.63E-09,  avg # of iterations =  4.0

     negative rho (up, down):  1.765E-01 0.000E+00

     total cpu time spent up to now is       11.0 secs

     total energy              =      -2.06249096 Ry
     estimated scf accuracy    <       0.00000004 Ry

     iteration # 47     ecut=    10.00 Ry     beta= 0.70
     Davidson diagonalization with overlap

---- Real-time Memory Report at c_bands before calling an iterative solver
           129 MiB given to the printing process from OS
             0 MiB allocation reported by mallinfo(arena+hblkhd)
          1167 MiB available memory on the node where the printing process lives
------------------
     ethr =  1.63E-09,  avg # of iterations =  5.0

     negative rho (up, down):  1.766E-01 0.000E+00

     total cpu time spent up to now is       11.2 secs

     total energy              =      -2.06247552 Ry
     estimated scf accuracy    <       0.00000023 Ry

     iteration # 48     ecut=    10.00 Ry     beta= 0.70
     Davidson diagonalization with overlap

---- Real-time Memory Report at c_bands before calling an iterative solver
           129 MiB given to the printing process from OS
             0 MiB allocation reported by mallinfo(arena+hblkhd)
          1167 MiB available memory on the node where the printing process lives
------------------
     ethr =  1.63E-09,  avg # of iterations =  4.0

     negative rho (up, down):  1.765E-01 0.000E+00

     total cpu time spent up to now is       11.5 secs

     total energy              =      -2.06248132 Ry
     estimated scf accuracy    <       0.00000029 Ry

     iteration # 49     ecut=    10.00 Ry     beta= 0.70
     Davidson diagonalization with overlap

---- Real-time Memory Report at c_bands before calling an iterative solver
           129 MiB given to the printing process from OS
             0 MiB allocation reported by mallinfo(arena+hblkhd)
          1167 MiB available memory on the node where the printing process lives
------------------
     ethr =  1.63E-09,  avg # of iterations =  2.0

     negative rho (up, down):  1.766E-01 0.000E+00

     total cpu time spent up to now is       11.7 secs

     total energy              =      -2.06243019 Ry
     estimated scf accuracy    <       0.00000032 Ry

     iteration # 50     ecut=    10.00 Ry     beta= 0.70
     Davidson diagonalization with overlap

---- Real-time Memory Report at c_bands before calling an iterative solver
           129 MiB given to the printing process from OS
             0 MiB allocation reported by mallinfo(arena+hblkhd)
          1167 MiB available memory on the node where the printing process lives
------------------
     ethr =  1.63E-09,  avg # of iterations =  5.0

     negative rho (up, down):  1.765E-01 0.000E+00

     total cpu time spent up to now is       12.0 secs

     total energy              =      -2.06245857 Ry
     estimated scf accuracy    <       0.00000031 Ry

     iteration # 51     ecut=    10.00 Ry     beta= 0.70
     Davidson diagonalization with overlap

---- Real-time Memory Report at c_bands before calling an iterative solver
           129 MiB given to the printing process from OS
             0 MiB allocation reported by mallinfo(arena+hblkhd)
          1167 MiB available memory on the node where the printing process lives
------------------
     ethr =  1.63E-09,  avg # of iterations =  5.0

     negative rho (up, down):  1.765E-01 0.000E+00

     total cpu time spent up to now is       12.2 secs

     total energy              =      -2.06247705 Ry
     estimated scf accuracy    <       0.00000008 Ry

     iteration # 52     ecut=    10.00 Ry     beta= 0.70
     Davidson diagonalization with overlap

---- Real-time Memory Report at c_bands before calling an iterative solver
           129 MiB given to the printing process from OS
             0 MiB allocation reported by mallinfo(arena+hblkhd)
          1167 MiB available memory on the node where the printing process lives
------------------
     ethr =  1.63E-09,  avg # of iterations =  3.0

     negative rho (up, down):  1.766E-01 0.000E+00

     total cpu time spent up to now is       12.4 secs

     total energy              =      -2.06247696 Ry
     estimated scf accuracy    <       0.00000008 Ry

     iteration # 53     ecut=    10.00 Ry     beta= 0.70
     Davidson diagonalization with overlap

---- Real-time Memory Report at c_bands before calling an iterative solver
           129 MiB given to the printing process from OS
             0 MiB allocation reported by mallinfo(arena+hblkhd)
          1167 MiB available memory on the node where the printing process lives
------------------
     ethr =  1.63E-09,  avg # of iterations =  2.0

     negative rho (up, down):  1.766E-01 0.000E+00

     total cpu time spent up to now is       12.7 secs

     total energy              =      -2.06246791 Ry
     estimated scf accuracy    <       0.00000007 Ry

     iteration # 54     ecut=    10.00 Ry     beta= 0.70
     Davidson diagonalization with overlap

---- Real-time Memory Report at c_bands before calling an iterative solver
           129 MiB given to the printing process from OS
             0 MiB allocation reported by mallinfo(arena+hblkhd)
          1167 MiB available memory on the node where the printing process lives
------------------
     ethr =  1.63E-09,  avg # of iterations =  3.0

     negative rho (up, down):  1.766E-01 0.000E+00

     total cpu time spent up to now is       12.9 secs

     total energy              =      -2.06247350 Ry
     estimated scf accuracy    <       0.00000009 Ry

     iteration # 55     ecut=    10.00 Ry     beta= 0.70
     Davidson diagonalization with overlap

---- Real-time Memory Report at c_bands before calling an iterative solver
           129 MiB given to the printing process from OS
             0 MiB allocation reported by mallinfo(arena+hblkhd)
          1167 MiB available memory on the node where the printing process lives
------------------
     ethr =  1.63E-09,  avg # of iterations =  4.0

     negative rho (up, down):  1.766E-01 0.000E+00

     total cpu time spent up to now is       13.1 secs

     total energy              =      -2.06243402 Ry
     estimated scf accuracy    <       0.00000024 Ry

     iteration # 56     ecut=    10.00 Ry     beta= 0.70
     Davidson diagonalization with overlap

---- Real-time Memory Report at c_bands before calling an iterative solver
           129 MiB given to the printing process from OS
             0 MiB allocation reported by mallinfo(arena+hblkhd)
          1167 MiB available memory on the node where the printing process lives
------------------
     ethr =  1.63E-09,  avg # of iterations =  5.0

     negative rho (up, down):  1.766E-01 0.000E+00

     total cpu time spent up to now is       13.4 secs

     total energy              =      -2.06243369 Ry
     estimated scf accuracy    <       0.00000032 Ry

     iteration # 57     ecut=    10.00 Ry     beta= 0.70
     Davidson diagonalization with overlap

---- Real-time Memory Report at c_bands before calling an iterative solver
           129 MiB given to the printing process from OS
             0 MiB allocation reported by mallinfo(arena+hblkhd)
          1167 MiB available memory on the node where the printing process lives
------------------
     ethr =  1.63E-09,  avg # of iterations =  3.0

     negative rho (up, down):  1.767E-01 0.000E+00

     total cpu time spent up to now is       13.6 secs

     total energy              =      -2.06243998 Ry
     estimated scf accuracy    <       0.00000032 Ry

     iteration # 58     ecut=    10.00 Ry     beta= 0.70
     Davidson diagonalization with overlap

---- Real-time Memory Report at c_bands before calling an iterative solver
           129 MiB given to the printing process from OS
             0 MiB allocation reported by mallinfo(arena+hblkhd)
          1167 MiB available memory on the node where the printing process lives
------------------
     ethr =  1.63E-09,  avg # of iterations =  5.0

     negative rho (up, down):  1.767E-01 0.000E+00

     total cpu time spent up to now is       13.9 secs

     total energy              =      -2.06244154 Ry
     estimated scf accuracy    <       0.00000053 Ry

     iteration # 59     ecut=    10.00 Ry     beta= 0.70
     Davidson diagonalization with overlap

---- Real-time Memory Report at c_bands before calling an iterative solver
           129 MiB given to the printing process from OS
             0 MiB allocation reported by mallinfo(arena+hblkhd)
          1167 MiB available memory on the node where the printing process lives
------------------
     ethr =  1.63E-09,  avg # of iterations =  4.0

     negative rho (up, down):  1.767E-01 0.000E+00

     total cpu time spent up to now is       14.1 secs

     total energy              =      -2.06244351 Ry
     estimated scf accuracy    <       0.00000098 Ry

     iteration # 60     ecut=    10.00 Ry     beta= 0.70
     Davidson diagonalization with overlap

---- Real-time Memory Report at c_bands before calling an iterative solver
           129 MiB given to the printing process from OS
             0 MiB allocation reported by mallinfo(arena+hblkhd)
          1167 MiB available memory on the node where the printing process lives
------------------
     ethr =  1.63E-09,  avg # of iterations =  2.0

     negative rho (up, down):  1.766E-01 0.000E+00

     total cpu time spent up to now is       14.3 secs

     total energy              =      -2.06246582 Ry
     estimated scf accuracy    <       0.00000107 Ry

     iteration # 61     ecut=    10.00 Ry     beta= 0.70
     Davidson diagonalization with overlap

---- Real-time Memory Report at c_bands before calling an iterative solver
           129 MiB given to the printing process from OS
             0 MiB allocation reported by mallinfo(arena+hblkhd)
          1167 MiB available memory on the node where the printing process lives
------------------
     ethr =  1.63E-09,  avg # of iterations =  5.0

     negative rho (up, down):  1.766E-01 0.000E+00

     total cpu time spent up to now is       14.6 secs

     total energy              =      -2.06248488 Ry
     estimated scf accuracy    <       0.00000043 Ry

     iteration # 62     ecut=    10.00 Ry     beta= 0.70
     Davidson diagonalization with overlap

---- Real-time Memory Report at c_bands before calling an iterative solver
           129 MiB given to the printing process from OS
             0 MiB allocation reported by mallinfo(arena+hblkhd)
          1167 MiB available memory on the node where the printing process lives
------------------
     ethr =  1.63E-09,  avg # of iterations =  4.0

     negative rho (up, down):  1.766E-01 0.000E+00

     total cpu time spent up to now is       14.8 secs

     total energy              =      -2.06247864 Ry
     estimated scf accuracy    <       0.00000032 Ry

     iteration # 63     ecut=    10.00 Ry     beta= 0.70
     Davidson diagonalization with overlap

---- Real-time Memory Report at c_bands before calling an iterative solver
           129 MiB given to the printing process from OS
             0 MiB allocation reported by mallinfo(arena+hblkhd)
          1167 MiB available memory on the node where the printing process lives
------------------
     ethr =  1.63E-09,  avg # of iterations =  3.0

     negative rho (up, down):  1.765E-01 0.000E+00

     total cpu time spent up to now is       15.0 secs

     total energy              =      -2.06248635 Ry
     estimated scf accuracy    <       0.00000032 Ry

     iteration # 64     ecut=    10.00 Ry     beta= 0.70
     Davidson diagonalization with overlap

---- Real-time Memory Report at c_bands before calling an iterative solver
           129 MiB given to the printing process from OS
             0 MiB allocation reported by mallinfo(arena+hblkhd)
          1167 MiB available memory on the node where the printing process lives
------------------
     ethr =  1.63E-09,  avg # of iterations =  4.0

     negative rho (up, down):  1.766E-01 0.000E+00

     total cpu time spent up to now is       15.3 secs

     total energy              =      -2.06247123 Ry
     estimated scf accuracy    <       0.00000011 Ry

     iteration # 65     ecut=    10.00 Ry     beta= 0.70
     Davidson diagonalization with overlap

---- Real-time Memory Report at c_bands before calling an iterative solver
           129 MiB given to the printing process from OS
             0 MiB allocation reported by mallinfo(arena+hblkhd)
          1167 MiB available memory on the node where the printing process lives
------------------
     ethr =  1.63E-09,  avg # of iterations =  4.0

     negative rho (up, down):  1.766E-01 0.000E+00

     total cpu time spent up to now is       15.5 secs

     total energy              =      -2.06244976 Ry
     estimated scf accuracy    <       0.00000029 Ry

     iteration # 66     ecut=    10.00 Ry     beta= 0.70
     Davidson diagonalization with overlap

---- Real-time Memory Report at c_bands before calling an iterative solver
           129 MiB given to the printing process from OS
             0 MiB allocation reported by mallinfo(arena+hblkhd)
          1167 MiB available memory on the node where the printing process lives
------------------
     ethr =  1.63E-09,  avg # of iterations =  4.0

     negative rho (up, down):  1.766E-01 0.000E+00

     total cpu time spent up to now is       15.7 secs

     total energy              =      -2.06245498 Ry
     estimated scf accuracy    <       0.00000002 Ry

     iteration # 67     ecut=    10.00 Ry     beta= 0.70
     Davidson diagonalization with overlap

---- Real-time Memory Report at c_bands before calling an iterative solver
           129 MiB given to the printing process from OS
             0 MiB allocation reported by mallinfo(arena+hblkhd)
          1167 MiB available memory on the node where the printing process lives
------------------
     ethr =  1.19E-09,  avg # of iterations =  3.0

     negative rho (up, down):  1.766E-01 0.000E+00

     total cpu time spent up to now is       15.9 secs

     total energy              =      -2.06246603 Ry
     estimated scf accuracy    <       0.00000001 Ry

     iteration # 68     ecut=    10.00 Ry     beta= 0.70
     Davidson diagonalization with overlap

---- Real-time Memory Report at c_bands before calling an iterative solver
           129 MiB given to the printing process from OS
             0 MiB allocation reported by mallinfo(arena+hblkhd)
          1167 MiB available memory on the node where the printing process lives
------------------
     ethr =  6.12E-10,  avg # of iterations =  3.0

     negative rho (up, down):  1.766E-01 0.000E+00

     total cpu time spent up to now is       16.2 secs

     total energy              =      -2.06246144 Ry
     estimated scf accuracy    <       0.00000002 Ry

     iteration # 69     ecut=    10.00 Ry     beta= 0.70
     Davidson diagonalization with overlap

---- Real-time Memory Report at c_bands before calling an iterative solver
           129 MiB given to the printing process from OS
             0 MiB allocation reported by mallinfo(arena+hblkhd)
          1167 MiB available memory on the node where the printing process lives
------------------
     ethr =  6.12E-10,  avg # of iterations =  4.0

     negative rho (up, down):  1.766E-01 0.000E+00

     total cpu time spent up to now is       16.4 secs

     total energy              =      -2.06243764 Ry
     estimated scf accuracy    <       0.00000002 Ry

     iteration # 70     ecut=    10.00 Ry     beta= 0.70
     Davidson diagonalization with overlap

---- Real-time Memory Report at c_bands before calling an iterative solver
           129 MiB given to the printing process from OS
             0 MiB allocation reported by mallinfo(arena+hblkhd)
          1167 MiB available memory on the node where the printing process lives
------------------
     ethr =  6.12E-10,  avg # of iterations =  5.0

     negative rho (up, down):  1.766E-01 0.000E+00

     total cpu time spent up to now is       16.6 secs

     total energy              =      -2.06242934 Ry
     estimated scf accuracy    <       0.00000029 Ry

     iteration # 71     ecut=    10.00 Ry     beta= 0.70
     Davidson diagonalization with overlap

---- Real-time Memory Report at c_bands before calling an iterative solver
           129 MiB given to the printing process from OS
             0 MiB allocation reported by mallinfo(arena+hblkhd)
          1167 MiB available memory on the node where the printing process lives
------------------
     ethr =  6.12E-10,  avg # of iterations =  5.0

     negative rho (up, down):  1.766E-01 0.000E+00

     total cpu time spent up to now is       16.9 secs

     total energy              =      -2.06244667 Ry
     estimated scf accuracy    <       0.00000009 Ry

     iteration # 72     ecut=    10.00 Ry     beta= 0.70
     Davidson diagonalization with overlap

---- Real-time Memory Report at c_bands before calling an iterative solver
           129 MiB given to the printing process from OS
             0 MiB allocation reported by mallinfo(arena+hblkhd)
          1167 MiB available memory on the node where the printing process lives
------------------
     ethr =  6.12E-10,  avg # of iterations =  5.0

     negative rho (up, down):  1.765E-01 0.000E+00

     total cpu time spent up to now is       17.1 secs

     total energy              =      -2.06248008 Ry
     estimated scf accuracy    <       0.00000032 Ry

     iteration # 73     ecut=    10.00 Ry     beta= 0.70
     Davidson diagonalization with overlap

---- Real-time Memory Report at c_bands before calling an iterative solver
           129 MiB given to the printing process from OS
             0 MiB allocation reported by mallinfo(arena+hblkhd)
          1167 MiB available memory on the node where the printing process lives
------------------
     ethr =  6.12E-10,  avg # of iterations =  4.0

     negative rho (up, down):  1.765E-01 0.000E+00

     total cpu time spent up to now is       17.4 secs

     total energy              =      -2.06248659 Ry
     estimated scf accuracy    <       0.00000030 Ry

     iteration # 74     ecut=    10.00 Ry     beta= 0.70
     Davidson diagonalization with overlap

---- Real-time Memory Report at c_bands before calling an iterative solver
           129 MiB given to the printing process from OS
             0 MiB allocation reported by mallinfo(arena+hblkhd)
          1167 MiB available memory on the node where the printing process lives
------------------
     ethr =  6.12E-10,  avg # of iterations =  6.0

     negative rho (up, down):  1.765E-01 0.000E+00

     total cpu time spent up to now is       17.6 secs

     total energy              =      -2.06250311 Ry
     estimated scf accuracy    <       0.00000037 Ry

     iteration # 75     ecut=    10.00 Ry     beta= 0.70
     Davidson diagonalization with overlap

---- Real-time Memory Report at c_bands before calling an iterative solver
           129 MiB given to the printing process from OS
             0 MiB allocation reported by mallinfo(arena+hblkhd)
          1167 MiB available memory on the node where the printing process lives
------------------
     ethr =  6.12E-10,  avg # of iterations =  4.0

     negative rho (up, down):  1.765E-01 0.000E+00

     total cpu time spent up to now is       17.9 secs

     total energy              =      -2.06248090 Ry
     estimated scf accuracy    <       0.00000006 Ry

     iteration # 76     ecut=    10.00 Ry     beta= 0.70
     Davidson diagonalization with overlap

---- Real-time Memory Report at c_bands before calling an iterative solver
           129 MiB given to the printing process from OS
             0 MiB allocation reported by mallinfo(arena+hblkhd)
          1167 MiB available memory on the node where the printing process lives
------------------
     ethr =  6.12E-10,  avg # of iterations =  6.0

     negative rho (up, down):  1.765E-01 0.000E+00

     total cpu time spent up to now is       18.1 secs

     total energy              =      -2.06248829 Ry
     estimated scf accuracy    <       0.00000018 Ry

     iteration # 77     ecut=    10.00 Ry     beta= 0.70
     Davidson diagonalization with overlap

---- Real-time Memory Report at c_bands before calling an iterative solver
           129 MiB given to the printing process from OS
             0 MiB allocation reported by mallinfo(arena+hblkhd)
          1167 MiB available memory on the node where the printing process lives
------------------
     ethr =  6.12E-10,  avg # of iterations =  6.0

     negative rho (up, down):  1.765E-01 0.000E+00

     total cpu time spent up to now is       18.4 secs

     total energy              =      -2.06250732 Ry
     estimated scf accuracy    <       0.00000012 Ry

     iteration # 78     ecut=    10.00 Ry     beta= 0.70
     Davidson diagonalization with overlap

---- Real-time Memory Report at c_bands before calling an iterative solver
           129 MiB given to the printing process from OS
             0 MiB allocation reported by mallinfo(arena+hblkhd)
          1167 MiB available memory on the node where the printing process lives
------------------
     ethr =  6.12E-10,  avg # of iterations =  4.0

     negative rho (up, down):  1.764E-01 0.000E+00

     total cpu time spent up to now is       18.6 secs

     total energy              =      -2.06256283 Ry
     estimated scf accuracy    <       0.00000034 Ry

     iteration # 79     ecut=    10.00 Ry     beta= 0.70
     Davidson diagonalization with overlap

---- Real-time Memory Report at c_bands before calling an iterative solver
           129 MiB given to the printing process from OS
             0 MiB allocation reported by mallinfo(arena+hblkhd)
          1167 MiB available memory on the node where the printing process lives
------------------
     ethr =  6.12E-10,  avg # of iterations =  5.0

     negative rho (up, down):  1.766E-01 0.000E+00

     total cpu time spent up to now is       18.8 secs

     total energy              =      -2.06245376 Ry
     estimated scf accuracy    <       0.00000014 Ry

     iteration # 80     ecut=    10.00 Ry     beta= 0.70
     Davidson diagonalization with overlap

---- Real-time Memory Report at c_bands before calling an iterative solver
           129 MiB given to the printing process from OS
             0 MiB allocation reported by mallinfo(arena+hblkhd)
          1167 MiB available memory on the node where the printing process lives
------------------
     ethr =  6.12E-10,  avg # of iterations =  5.0

     negative rho (up, down):  1.766E-01 0.000E+00

     total cpu time spent up to now is       19.1 secs

     total energy              =      -2.06242767 Ry
     estimated scf accuracy    <       0.00000028 Ry

     iteration # 81     ecut=    10.00 Ry     beta= 0.70
     Davidson diagonalization with overlap

---- Real-time Memory Report at c_bands before calling an iterative solver
           129 MiB given to the printing process from OS
             0 MiB allocation reported by mallinfo(arena+hblkhd)
          1167 MiB available memory on the node where the printing process lives
------------------
     ethr =  6.12E-10,  avg # of iterations =  4.0

     negative rho (up, down):  1.766E-01 0.000E+00

     total cpu time spent up to now is       19.3 secs

     total energy              =      -2.06241902 Ry
     estimated scf accuracy    <       0.00000045 Ry

     iteration # 82     ecut=    10.00 Ry     beta= 0.70
     Davidson diagonalization with overlap

---- Real-time Memory Report at c_bands before calling an iterative solver
           129 MiB given to the printing process from OS
             0 MiB allocation reported by mallinfo(arena+hblkhd)
          1167 MiB available memory on the node where the printing process lives
------------------
     ethr =  6.12E-10,  avg # of iterations =  5.0

     negative rho (up, down):  1.766E-01 0.000E+00

     total cpu time spent up to now is       19.6 secs

     total energy              =      -2.06243168 Ry
     estimated scf accuracy    <       0.00000034 Ry

     iteration # 83     ecut=    10.00 Ry     beta= 0.70
     Davidson diagonalization with overlap

---- Real-time Memory Report at c_bands before calling an iterative solver
           129 MiB given to the printing process from OS
             0 MiB allocation reported by mallinfo(arena+hblkhd)
          1167 MiB available memory on the node where the printing process lives
------------------
     ethr =  6.12E-10,  avg # of iterations =  2.0

     negative rho (up, down):  1.765E-01 0.000E+00

     total cpu time spent up to now is       19.8 secs

     total energy              =      -2.06247498 Ry
     estimated scf accuracy    <       0.00000034 Ry

     iteration # 84     ecut=    10.00 Ry     beta= 0.70
     Davidson diagonalization with overlap

---- Real-time Memory Report at c_bands before calling an iterative solver
           129 MiB given to the printing process from OS
             0 MiB allocation reported by mallinfo(arena+hblkhd)
          1167 MiB available memory on the node where the printing process lives
------------------
     ethr =  6.12E-10,  avg # of iterations =  5.0

     negative rho (up, down):  1.766E-01 0.000E+00

     total cpu time spent up to now is       20.0 secs

     total energy              =      -2.06244057 Ry
     estimated scf accuracy    <       0.00000033 Ry

     iteration # 85     ecut=    10.00 Ry     beta= 0.70
     Davidson diagonalization with overlap

---- Real-time Memory Report at c_bands before calling an iterative solver
           129 MiB given to the printing process from OS
             0 MiB allocation reported by mallinfo(arena+hblkhd)
          1167 MiB available memory on the node where the printing process lives
------------------
     ethr =  6.12E-10,  avg # of iterations =  5.0

     negative rho (up, down):  1.766E-01 0.000E+00

     total cpu time spent up to now is       20.3 secs

     total energy              =      -2.06243986 Ry
     estimated scf accuracy    <       0.00000050 Ry

     iteration # 86     ecut=    10.00 Ry     beta= 0.70
     Davidson diagonalization with overlap

---- Real-time Memory Report at c_bands before calling an iterative solver
           129 MiB given to the printing process from OS
             0 MiB allocation reported by mallinfo(arena+hblkhd)
          1167 MiB available memory on the node where the printing process lives
------------------
     ethr =  6.12E-10,  avg # of iterations =  3.0

     negative rho (up, down):  1.766E-01 0.000E+00

     total cpu time spent up to now is       20.5 secs

     total energy              =      -2.06243625 Ry
     estimated scf accuracy    <       0.00000055 Ry

     iteration # 87     ecut=    10.00 Ry     beta= 0.70
     Davidson diagonalization with overlap

---- Real-time Memory Report at c_bands before calling an iterative solver
           129 MiB given to the printing process from OS
             0 MiB allocation reported by mallinfo(arena+hblkhd)
          1167 MiB available memory on the node where the printing process lives
------------------
     ethr =  6.12E-10,  avg # of iterations =  4.0

     negative rho (up, down):  1.765E-01 0.000E+00

     total cpu time spent up to now is       20.7 secs

     total energy              =      -2.06246906 Ry
     estimated scf accuracy    <       0.00000124 Ry

     iteration # 88     ecut=    10.00 Ry     beta= 0.70
     Davidson diagonalization with overlap

---- Real-time Memory Report at c_bands before calling an iterative solver
           129 MiB given to the printing process from OS
             0 MiB allocation reported by mallinfo(arena+hblkhd)
          1167 MiB available memory on the node where the printing process lives
------------------
     ethr =  6.12E-10,  avg # of iterations =  6.0

     negative rho (up, down):  1.765E-01 0.000E+00

     total cpu time spent up to now is       21.0 secs

     total energy              =      -2.06250106 Ry
     estimated scf accuracy    <       0.00000031 Ry

     iteration # 89     ecut=    10.00 Ry     beta= 0.70
     Davidson diagonalization with overlap

---- Real-time Memory Report at c_bands before calling an iterative solver
           129 MiB given to the printing process from OS
             0 MiB allocation reported by mallinfo(arena+hblkhd)
          1167 MiB available memory on the node where the printing process lives
------------------
     ethr =  6.12E-10,  avg # of iterations =  3.0

     negative rho (up, down):  1.766E-01 0.000E+00

     total cpu time spent up to now is       21.2 secs

     total energy              =      -2.06247108 Ry
     estimated scf accuracy    <       0.00000029 Ry

     iteration # 90     ecut=    10.00 Ry     beta= 0.70
     Davidson diagonalization with overlap

---- Real-time Memory Report at c_bands before calling an iterative solver
           129 MiB given to the printing process from OS
             0 MiB allocation reported by mallinfo(arena+hblkhd)
          1167 MiB available memory on the node where the printing process lives
------------------
     ethr =  6.12E-10,  avg # of iterations =  4.0

     negative rho (up, down):  1.766E-01 0.000E+00

     total cpu time spent up to now is       21.4 secs

     total energy              =      -2.06245650 Ry
     estimated scf accuracy    <       0.00000007 Ry

     iteration # 91     ecut=    10.00 Ry     beta= 0.70
     Davidson diagonalization with overlap

---- Real-time Memory Report at c_bands before calling an iterative solver
           129 MiB given to the printing process from OS
             0 MiB allocation reported by mallinfo(arena+hblkhd)
          1167 MiB available memory on the node where the printing process lives
------------------
     ethr =  6.12E-10,  avg # of iterations =  4.0

     negative rho (up, down):  1.765E-01 0.000E+00

     total cpu time spent up to now is       21.7 secs

     total energy              =      -2.06249909 Ry
     estimated scf accuracy    <       0.00000014 Ry

     iteration # 92     ecut=    10.00 Ry     beta= 0.70
     Davidson diagonalization with overlap

---- Real-time Memory Report at c_bands before calling an iterative solver
           129 MiB given to the printing process from OS
             0 MiB allocation reported by mallinfo(arena+hblkhd)
          1167 MiB available memory on the node where the printing process lives
------------------
     ethr =  6.12E-10,  avg # of iterations =  5.0

     negative rho (up, down):  1.766E-01 0.000E+00

     total cpu time spent up to now is       21.9 secs

     total energy              =      -2.06243626 Ry
     estimated scf accuracy    <       0.00000055 Ry

     iteration # 93     ecut=    10.00 Ry     beta= 0.70
     Davidson diagonalization with overlap

---- Real-time Memory Report at c_bands before calling an iterative solver
           129 MiB given to the printing process from OS
             0 MiB allocation reported by mallinfo(arena+hblkhd)
          1167 MiB available memory on the node where the printing process lives
------------------
     ethr =  6.12E-10,  avg # of iterations =  5.0

     negative rho (up, down):  1.765E-01 0.000E+00

     total cpu time spent up to now is       22.2 secs

     total energy              =      -2.06246480 Ry
     estimated scf accuracy    <       0.00000026 Ry

     iteration # 94     ecut=    10.00 Ry     beta= 0.70
     Davidson diagonalization with overlap

---- Real-time Memory Report at c_bands before calling an iterative solver
           129 MiB given to the printing process from OS
             0 MiB allocation reported by mallinfo(arena+hblkhd)
          1167 MiB available memory on the node where the printing process lives
------------------
     ethr =  6.12E-10,  avg # of iterations =  5.0

     negative rho (up, down):  1.765E-01 0.000E+00

     total cpu time spent up to now is       22.4 secs

     total energy              =      -2.06247748 Ry
     estimated scf accuracy    <       0.00000007 Ry

     iteration # 95     ecut=    10.00 Ry     beta= 0.70
     Davidson diagonalization with overlap

---- Real-time Memory Report at c_bands before calling an iterative solver
           129 MiB given to the printing process from OS
             0 MiB allocation reported by mallinfo(arena+hblkhd)
          1167 MiB available memory on the node where the printing process lives
------------------
     ethr =  6.12E-10,  avg # of iterations =  4.0

     negative rho (up, down):  1.765E-01 0.000E+00

     total cpu time spent up to now is       22.6 secs

     total energy              =      -2.06248282 Ry
     estimated scf accuracy    <       0.00000012 Ry

     iteration # 96     ecut=    10.00 Ry     beta= 0.70
     Davidson diagonalization with overlap

---- Real-time Memory Report at c_bands before calling an iterative solver
           129 MiB given to the printing process from OS
             0 MiB allocation reported by mallinfo(arena+hblkhd)
          1167 MiB available memory on the node where the printing process lives
------------------
     ethr =  6.12E-10,  avg # of iterations =  3.0

     negative rho (up, down):  1.765E-01 0.000E+00

     total cpu time spent up to now is       22.9 secs

     total energy              =      -2.06246754 Ry
     estimated scf accuracy    <       0.00000014 Ry

     iteration # 97     ecut=    10.00 Ry     beta= 0.70
     Davidson diagonalization with overlap

---- Real-time Memory Report at c_bands before calling an iterative solver
           129 MiB given to the printing process from OS
             0 MiB allocation reported by mallinfo(arena+hblkhd)
          1167 MiB available memory on the node where the printing process lives
------------------
     ethr =  6.12E-10,  avg # of iterations =  4.0

     negative rho (up, down):  1.765E-01 0.000E+00

     total cpu time spent up to now is       23.1 secs

     total energy              =      -2.06247011 Ry
     estimated scf accuracy    <       0.00000014 Ry

     iteration # 98     ecut=    10.00 Ry     beta= 0.70
     Davidson diagonalization with overlap

---- Real-time Memory Report at c_bands before calling an iterative solver
           129 MiB given to the printing process from OS
             0 MiB allocation reported by mallinfo(arena+hblkhd)
          1167 MiB available memory on the node where the printing process lives
------------------
     ethr =  6.12E-10,  avg # of iterations =  2.0

     negative rho (up, down):  1.766E-01 0.000E+00

     total cpu time spent up to now is       23.3 secs

     total energy              =      -2.06247548 Ry
     estimated scf accuracy    <       0.00000014 Ry

     iteration # 99     ecut=    10.00 Ry     beta= 0.70
     Davidson diagonalization with overlap

---- Real-time Memory Report at c_bands before calling an iterative solver
           129 MiB given to the printing process from OS
             0 MiB allocation reported by mallinfo(arena+hblkhd)
          1167 MiB available memory on the node where the printing process lives
------------------
     ethr =  6.12E-10,  avg # of iterations =  4.0

     negative rho (up, down):  1.766E-01 0.000E+00

     total cpu time spent up to now is       23.5 secs

     total energy              =      -2.06247642 Ry
     estimated scf accuracy    <       0.00000005 Ry

     iteration #100     ecut=    10.00 Ry     beta= 0.70
     Davidson diagonalization with overlap

---- Real-time Memory Report at c_bands before calling an iterative solver
           129 MiB given to the printing process from OS
             0 MiB allocation reported by mallinfo(arena+hblkhd)
          1167 MiB available memory on the node where the printing process lives
------------------
     ethr =  6.12E-10,  avg # of iterations =  2.0

     negative rho (up, down):  1.766E-01 0.000E+00

     total cpu time spent up to now is       23.8 secs

     total energy              =      -2.06243028 Ry
     estimated scf accuracy    <       0.00000005 Ry

     End of self-consistent calculation

     convergence NOT achieved after 100 iterations: stopping

     Writing config to output data dir ./.save/
     Message from routine punch:
     wavefunctions written to file

     init_run     :      0.21s CPU      0.23s WALL (       1 calls)
     electrons    :     23.48s CPU     23.54s WALL (       1 calls)

     Called by init_run:
     wfcinit      :      0.02s CPU      0.02s WALL (       1 calls)
     wfcinit:atom :      0.00s CPU      0.00s WALL (       1 calls)
     wfcinit:wfcr :      0.01s CPU      0.01s WALL (       1 calls)
     potinit      :      0.13s CPU      0.14s WALL (       1 calls)
     hinit0       :      0.02s CPU      0.02s WALL (       1 calls)

     Called by electrons:
     c_bands      :      5.20s CPU      5.22s WALL (     101 calls)
     sum_band     :      2.54s CPU      2.56s WALL (     101 calls)
     v_of_rho     :     12.11s CPU     12.12s WALL (     101 calls)
     v_h          :      0.67s CPU      0.67s WALL (     101 calls)
     v_xc         :     11.44s CPU     11.45s WALL (     101 calls)
     newd         :      0.84s CPU      0.84s WALL (     101 calls)
     mix_rho      :      2.67s CPU      2.67s WALL (     101 calls)

     Called by c_bands:
     init_us_2    :      0.08s CPU      0.08s WALL (     203 calls)
     init_us_2:cp :      0.08s CPU      0.08s WALL (     203 calls)
     cegterg      :      5.15s CPU      5.16s WALL (     101 calls)

     Called by sum_band:
     sum_band:wei :      0.00s CPU      0.00s WALL (     101 calls)
     sum_band:loo :      0.70s CPU      0.71s WALL (     101 calls)
     sum_band:buf :      0.00s CPU      0.00s WALL (     101 calls)
     sum_band:ini :      0.04s CPU      0.04s WALL (     101 calls)
     sum_band:cal :      0.01s CPU      0.01s WALL (     101 calls)
     sum_band:bec :      0.00s CPU      0.00s WALL (     101 calls)
     addusdens    :      0.24s CPU      0.24s WALL (     101 calls)
     addusd:skk   :      0.07s CPU      0.07s WALL (     101 calls)
     addusd:dgemm :      0.05s CPU      0.05s WALL (     101 calls)
     addusd:qvan2 :      0.06s CPU      0.06s WALL (     101 calls)

     Called by *egterg:
     cdiaghg      :      0.01s CPU      0.01s WALL (     486 calls)
     cegterg:over :      0.07s CPU      0.07s WALL (     386 calls)
     cegterg:upda :      0.06s CPU      0.06s WALL (     386 calls)
     cegterg:last :      0.13s CPU      0.13s WALL (     301 calls)
     h_psi        :      4.77s CPU      4.79s WALL (     488 calls)
     s_psi        :      0.03s CPU      0.03s WALL (     488 calls)
     g_psi        :      0.03s CPU      0.03s WALL (     386 calls)

     Called by h_psi:
     h_psi:calbec :      0.04s CPU      0.04s WALL (     488 calls)
     vloc_psi     :      4.69s CPU      4.70s WALL (     488 calls)
     add_vuspsi   :      0.03s CPU      0.03s WALL (     488 calls)

     General routines
     calbec       :      0.05s CPU      0.05s WALL (     589 calls)
     fft          :      5.69s CPU      5.70s WALL (    1112 calls)
     ffts         :      0.52s CPU      0.52s WALL (     101 calls)
     fftw         :      4.81s CPU      4.82s WALL (    1692 calls)
     davcio       :      0.00s CPU      0.01s WALL (      19 calls)


     PWSCF        :     23.72s CPU     23.80s WALL


   This run was terminated on:  22:17:59  28Feb2022            

=------------------------------------------------------------------------------=
   JOB DONE.
=------------------------------------------------------------------------------=
