
     Program PWSCF v.7.0 starts on 28Feb2022 at  3:20: 6 

     This program is part of the open-source Quantum ESPRESSO suite
     for quantum simulation of materials; please cite
         "P. Giannozzi et al., J. Phys.:Condens. Matter 21 395502 (2009);
         "P. Giannozzi et al., J. Phys.:Condens. Matter 29 465901 (2017);
         "P. Giannozzi et al., J. Chem. Phys. 152 154105 (2020);
          URL http://www.quantum-espresso.org", 
     in publications or presentations arising from this work. More details at
     http://www.quantum-espresso.org/quote

     Serial version
     554 MiB available memory on the printing compute node when the environment starts

     Waiting for input...
     Reading input from standard input

     Current dimensions of program PWSCF are:
     Max number of different atomic species (ntypx) = 10
     Max number of k-points (npk) =  40000
     Max angular momentum in pseudopotentials (lmaxx) =  4

     File ./.update deleted, as requested

     File ./.bfgs deleted, as requested

    ============================================================
    |  pseudopotential report for atomic species:  1           |
    |        pseudo potential version   7   3   2              |
    ------------------------------------------------------------
    |  hydrogen            PBE                  exchange-corr  |
    |  z =   1.    zv( 1) =   1.    exfact =   5.00000         |
    |  ifpcor =  0           atomic energy =  -0.91772 Ry      |
    |  index    orbital      occupation    energy              |
    |    1        100           1.00       -0.48               |
    |  rinner =  0.5000                                        |
    |    new generation scheme:                                |
    |    nbeta =  1     kkbeta =  271     rcloc =    0.6000    |
    |    ibeta    l     epsilon   rcut                         |
    |      1       0      -0.48   0.80                         |
    ============================================================

     IMPORTANT: XC functional enforced from input :
     Exchange-correlation= BLYP
                           (   1   3   1   3   0   0   0)
     Any further DFT definition will be discarded
     Please, verify this is what you really want


     G-vector sticks info
     --------------------
     sticks:   dense  smooth     PW     G-vecs:    dense   smooth      PW
     Sum        5721    5721   1565               326029   326029   45961

     Using Slab Decomposition



     bravais-lattice index     =            1
     lattice parameter (alat)  =      30.0000  a.u.
     unit-cell volume          =   27000.0000 (a.u.)^3
     number of atoms/cell      =            2
     number of atomic types    =            1
     number of electrons       =         2.00
     number of Kohn-Sham states=            2
     kinetic-energy cutoff     =      20.0000  Ry
     charge density cutoff     =      80.0000  Ry
     scf convergence threshold =      1.0E-08
     mixing beta               =       0.7000
     number of iterations used =            8  plain     mixing
     energy convergence thresh.=      1.0E-04
     force convergence thresh. =      1.0E-03
     Exchange-correlation= BLYP
                           (   1   3   1   3   0   0   0)
     nstep                     =           50


     celldm(1)=  30.000000  celldm(2)=   0.000000  celldm(3)=   0.000000
     celldm(4)=   0.000000  celldm(5)=   0.000000  celldm(6)=   0.000000

     crystal axes: (cart. coord. in units of alat)
               a(1) = (   1.000000   0.000000   0.000000 )  
               a(2) = (   0.000000   1.000000   0.000000 )  
               a(3) = (   0.000000   0.000000   1.000000 )  

     reciprocal axes: (cart. coord. in units 2 pi/alat)
               b(1) = (  1.000000  0.000000  0.000000 )  
               b(2) = (  0.000000  1.000000  0.000000 )  
               b(3) = (  0.000000  0.000000  1.000000 )  


     PseudoPot. # 1 for hy read from file:
     /root/q-e/pseudo/H_US.van
     MD5 check sum: a9a9bfe98ff56cf4de197d71fc46bb44
     Pseudo is Ultrasoft, Zval =  1.0
     Generated by Vanderbilt code, v. 7.3.2
     Using radial grid of  399 points,  1 beta functions with: 
                l(1) =   0
     Q(r) pseudized with  8 coefficients,  rinner =    0.500

     atomic species   valence    mass     pseudopotential
        H              1.00     1.00784     hy( 1.00)

      8 Sym. Ops. (no inversion) found


                                    s                        frac. trans.

      isym =  1     identity                                     

 cryst.   s( 1) = (     1          0          0      )
                  (     0          1          0      )
                  (     0          0          1      )

 cart.    s( 1) = (  1.0000000  0.0000000  0.0000000 )
                  (  0.0000000  1.0000000  0.0000000 )
                  (  0.0000000  0.0000000  1.0000000 )


      isym =  2     180 deg rotation - cart. axis [1,0,0]        

 cryst.   s( 2) = (     1          0          0      )
                  (     0         -1          0      )
                  (     0          0         -1      )

 cart.    s( 2) = (  1.0000000  0.0000000  0.0000000 )
                  (  0.0000000 -1.0000000  0.0000000 )
                  (  0.0000000  0.0000000 -1.0000000 )


      isym =  3      90 deg rotation - cart. axis [-1,0,0]       

 cryst.   s( 3) = (     1          0          0      )
                  (     0          0         -1      )
                  (     0          1          0      )

 cart.    s( 3) = (  1.0000000  0.0000000  0.0000000 )
                  (  0.0000000  0.0000000  1.0000000 )
                  (  0.0000000 -1.0000000  0.0000000 )


      isym =  4      90 deg rotation - cart. axis [1,0,0]        

 cryst.   s( 4) = (     1          0          0      )
                  (     0          0          1      )
                  (     0         -1          0      )

 cart.    s( 4) = (  1.0000000  0.0000000  0.0000000 )
                  (  0.0000000  0.0000000 -1.0000000 )
                  (  0.0000000  1.0000000  0.0000000 )


      isym =  5     inv. 180 deg rotation - cart. axis [0,0,1]   

 cryst.   s( 5) = (     1          0          0      )
                  (     0          1          0      )
                  (     0          0         -1      )

 cart.    s( 5) = (  1.0000000  0.0000000  0.0000000 )
                  (  0.0000000  1.0000000  0.0000000 )
                  (  0.0000000  0.0000000 -1.0000000 )


      isym =  6     inv. 180 deg rotation - cart. axis [0,1,0]   

 cryst.   s( 6) = (     1          0          0      )
                  (     0         -1          0      )
                  (     0          0          1      )

 cart.    s( 6) = (  1.0000000  0.0000000  0.0000000 )
                  (  0.0000000 -1.0000000  0.0000000 )
                  (  0.0000000  0.0000000  1.0000000 )


      isym =  7     inv. 180 deg rotation - cart. axis [0,1,1]   

 cryst.   s( 7) = (     1          0          0      )
                  (     0          0         -1      )
                  (     0         -1          0      )

 cart.    s( 7) = (  1.0000000  0.0000000  0.0000000 )
                  (  0.0000000  0.0000000 -1.0000000 )
                  (  0.0000000 -1.0000000  0.0000000 )


      isym =  8     inv. 180 deg rotation - cart. axis [0,1,-1]  

 cryst.   s( 8) = (     1          0          0      )
                  (     0          0          1      )
                  (     0          1          0      )

 cart.    s( 8) = (  1.0000000  0.0000000  0.0000000 )
                  (  0.0000000  0.0000000  1.0000000 )
                  (  0.0000000  1.0000000  0.0000000 )


     point group C_4v (4mm) 
     there are  5 classes
     the character table:

       E     2C4   C2    2s_v  2s_d 
A_1    1.00  1.00  1.00  1.00  1.00
A_2    1.00  1.00  1.00 -1.00 -1.00
B_1    1.00 -1.00  1.00  1.00 -1.00
B_2    1.00 -1.00  1.00 -1.00  1.00
E      2.00  0.00 -2.00  0.00  0.00

     the symmetry operations in each class and the name of the first element:

     E        1
          identity                                               
     2C4      3    4
           90 deg rotation - cart. axis [-1,0,0]                 
     C2       2
          180 deg rotation - cart. axis [1,0,0]                  
     2s_v     5    6
          inv. 180 deg rotation - cart. axis [0,0,1]             
     2s_d     7    8
          inv. 180 deg rotation - cart. axis [0,1,1]             

   Cartesian axes

     site n.     atom                  positions (alat units)
         1           H   tau(   1) = (   0.0000000   0.0000000   0.0000000  )
         2           H   tau(   2) = (   0.0491329   0.0000000   0.0000000  )

   Crystallographic axes

     site n.     atom                  positions (cryst. coord.)
         1           H   tau(   1) = (  0.0000000  0.0000000  0.0000000  )
         2           H   tau(   2) = (  0.0491329  0.0000000  0.0000000  )

     number of k points=     1
                       cart. coord. in units 2pi/alat
        k(    1) = (  -0.5000000  -0.5000000  -0.5000000), wk =   2.0000000

                       cryst. coord.
        k(    1) = (  -0.5000000  -0.5000000  -0.5000000), wk =   2.0000000

     Dense  grid:   326029 G-vectors     FFT dimensions: (  90,  90,  90)

     Dynamical RAM for                 wfc:       1.24 MB

     Dynamical RAM for     wfc (w. buffer):       1.24 MB

     Dynamical RAM for           str. fact:       4.97 MB

     Dynamical RAM for           local pot:       0.00 MB

     Dynamical RAM for          nlocal pot:       1.24 MB

     Dynamical RAM for                qrad:       0.01 MB

     Dynamical RAM for          rho,v,vnew:      31.61 MB

     Dynamical RAM for               rhoin:      10.54 MB

     Dynamical RAM for            rho*nmix:      79.60 MB

     Dynamical RAM for           G-vectors:      21.14 MB

     Dynamical RAM for          h,s,v(r/c):       0.00 MB

     Dynamical RAM for          <psi|beta>:       0.00 MB

     Dynamical RAM for                 psi:       2.49 MB

     Dynamical RAM for                hpsi:       2.49 MB

     Dynamical RAM for                spsi:       2.49 MB

     Dynamical RAM for      wfcinit/wfcrot:       2.49 MB

     Dynamical RAM for           addusdens:      29.85 MB

     Dynamical RAM for          addusforce:      42.29 MB

     Estimated static dynamical RAM per process >     108.52 MB

     Estimated max dynamical RAM per process >     230.40 MB

     Initial potential from superposition of free atoms

     starting charge       2.0000, renormalised to       2.0000

     negative rho (up, down):  5.595E-02 0.000E+00
     Starting wfcs are    2 randomized atomic wfcs

     total cpu time spent up to now is        0.6 secs

     Self-consistent Calculation

     iteration #  1     ecut=    20.00 Ry     beta= 0.70
     Davidson diagonalization with overlap

---- Real-time Memory Report at c_bands before calling an iterative solver
           195 MiB given to the printing process from OS
             0 MiB allocation reported by mallinfo(arena+hblkhd)
           427 MiB available memory on the node where the printing process lives
------------------
     ethr =  1.00E-02,  avg # of iterations =  5.0

     negative rho (up, down):  8.399E-02 0.000E+00

     total cpu time spent up to now is        1.4 secs

     total energy              =      -2.30907593 Ry
     estimated scf accuracy    <       0.10958871 Ry

     iteration #  2     ecut=    20.00 Ry     beta= 0.70
     Davidson diagonalization with overlap

---- Real-time Memory Report at c_bands before calling an iterative solver
           242 MiB given to the printing process from OS
             0 MiB allocation reported by mallinfo(arena+hblkhd)
           326 MiB available memory on the node where the printing process lives
------------------
     ethr =  5.48E-03,  avg # of iterations =  1.0

     negative rho (up, down):  9.012E-02 0.000E+00

     total cpu time spent up to now is        2.0 secs

     total energy              =      -2.31262249 Ry
     estimated scf accuracy    <       0.00127631 Ry

     iteration #  3     ecut=    20.00 Ry     beta= 0.70
     Davidson diagonalization with overlap

---- Real-time Memory Report at c_bands before calling an iterative solver
           252 MiB given to the printing process from OS
             0 MiB allocation reported by mallinfo(arena+hblkhd)
           315 MiB available memory on the node where the printing process lives
------------------
     ethr =  6.38E-05,  avg # of iterations =  9.0

     negative rho (up, down):  9.000E-02 0.000E+00

     total cpu time spent up to now is        2.8 secs

     total energy              =      -2.31304611 Ry
     estimated scf accuracy    <       0.00001447 Ry

     iteration #  4     ecut=    20.00 Ry     beta= 0.70
     Davidson diagonalization with overlap

---- Real-time Memory Report at c_bands before calling an iterative solver
           261 MiB given to the printing process from OS
             0 MiB allocation reported by mallinfo(arena+hblkhd)
           305 MiB available memory on the node where the printing process lives
------------------
     ethr =  7.24E-07,  avg # of iterations =  5.0

     negative rho (up, down):  9.016E-02 0.000E+00

     total cpu time spent up to now is        3.5 secs

     total energy              =      -2.31292885 Ry
     estimated scf accuracy    <       0.00000050 Ry

     iteration #  5     ecut=    20.00 Ry     beta= 0.70
     Davidson diagonalization with overlap

---- Real-time Memory Report at c_bands before calling an iterative solver
           272 MiB given to the printing process from OS
             0 MiB allocation reported by mallinfo(arena+hblkhd)
           295 MiB available memory on the node where the printing process lives
------------------
     ethr =  2.50E-08,  avg # of iterations =  2.0

     negative rho (up, down):  9.014E-02 0.000E+00

     total cpu time spent up to now is        4.0 secs

     End of self-consistent calculation

          k =-0.5000-0.5000-0.5000 ( 40800 PWs)   bands (ev):

   -10.3606  -1.4051

     occupation numbers 
     1.0000   0.0000

     highest occupied, lowest unoccupied level (ev):   -10.3606   -1.4051

!    total energy              =      -2.31295908 Ry
     estimated scf accuracy    <          1.9E-09 Ry

     The total energy is the sum of the following terms:
     one-electron contribution =      -4.13372485 Ry
     hartree contribution      =       2.21169752 Ry
     xc contribution           =      -1.36982831 Ry
     ewald contribution        =       0.97889656 Ry

     convergence has been achieved in   5 iterations

     Forces acting on atoms (cartesian axes, Ry/au):

     atom    1 type  1   force =     0.04301252    0.00000000    0.00000000
     atom    2 type  1   force =    -0.04301252    0.00000000    0.00000000
     The non-local contrib.  to forces
     atom    1 type  1   force =     0.09381358    0.00000000    0.00000000
     atom    2 type  1   force =    -0.09453331    0.00000000    0.00000000
     The ionic contribution  to forces
     atom    1 type  1   force =    -0.92008020   -0.00000000   -0.00000000
     atom    2 type  1   force =     0.92008020   -0.00000000   -0.00000000
     The local contribution  to forces
     atom    1 type  1   force =     0.86898654    0.00000000    0.00000000
     atom    2 type  1   force =    -0.86874614    0.00000000    0.00000000
     The core correction contribution to forces
     atom    1 type  1   force =     0.00000000    0.00000000    0.00000000
     atom    2 type  1   force =     0.00000000    0.00000000    0.00000000
     The Hubbard contrib.    to forces
     atom    1 type  1   force =     0.00000000    0.00000000    0.00000000
     atom    2 type  1   force =     0.00000000    0.00000000    0.00000000
     The SCF correction term to forces
     atom    1 type  1   force =     0.00023684    0.00000000   -0.00000000
     atom    2 type  1   force =     0.00013096    0.00000000   -0.00000000

     Total force =     0.060829     Total SCF correction =     0.000271

     BFGS Geometry Optimization
     Energy error            =      0.0E+00 Ry
     Gradient error          =      4.3E-02 Ry/Bohr

     number of scf cycles    =   1
     number of bfgs steps    =   0

     energy             new  =      -2.3129590784 Ry

     new trust radius        =       0.0430125215 bohr
     new conv_thr            =       0.0000000100 Ry


ATOMIC_POSITIONS (angstrom)
H             0.0227612462        0.0000000000        0.0000000000
H             0.7572387538        0.0000000000        0.0000000000



     Writing config-only to output data dir ./.save/
     NEW-OLD atomic charge density approx. for the potential

     negative rho (up, down):  8.803E-02 0.000E+00

     total cpu time spent up to now is        4.7 secs

     Self-consistent Calculation

     iteration #  1     ecut=    20.00 Ry     beta= 0.70
     Davidson diagonalization with overlap

---- Real-time Memory Report at c_bands before calling an iterative solver
           277 MiB given to the printing process from OS
             0 MiB allocation reported by mallinfo(arena+hblkhd)
           417 MiB available memory on the node where the printing process lives
------------------
     ethr =  1.00E-06,  avg # of iterations =  4.0

     negative rho (up, down):  9.146E-02 0.000E+00

     total cpu time spent up to now is        5.4 secs

     total energy              =      -2.31297906 Ry
     estimated scf accuracy    <       0.00055733 Ry

     iteration #  2     ecut=    20.00 Ry     beta= 0.70
     Davidson diagonalization with overlap

---- Real-time Memory Report at c_bands before calling an iterative solver
           277 MiB given to the printing process from OS
             0 MiB allocation reported by mallinfo(arena+hblkhd)
           320 MiB available memory on the node where the printing process lives
------------------
     ethr =  2.79E-05,  avg # of iterations =  1.0

     negative rho (up, down):  9.218E-02 0.000E+00

     total cpu time spent up to now is        6.0 secs

     total energy              =      -2.31257490 Ry
     estimated scf accuracy    <       0.00000630 Ry

     iteration #  3     ecut=    20.00 Ry     beta= 0.70
     Davidson diagonalization with overlap

---- Real-time Memory Report at c_bands before calling an iterative solver
           277 MiB given to the printing process from OS
             0 MiB allocation reported by mallinfo(arena+hblkhd)
           310 MiB available memory on the node where the printing process lives
------------------
     ethr =  3.15E-07,  avg # of iterations =  3.0

     negative rho (up, down):  9.231E-02 0.000E+00

     total cpu time spent up to now is        6.7 secs

     total energy              =      -2.31246086 Ry
     estimated scf accuracy    <       0.00000028 Ry

     iteration #  4     ecut=    20.00 Ry     beta= 0.70
     Davidson diagonalization with overlap

---- Real-time Memory Report at c_bands before calling an iterative solver
           277 MiB given to the printing process from OS
             0 MiB allocation reported by mallinfo(arena+hblkhd)
           300 MiB available memory on the node where the printing process lives
------------------
     ethr =  1.42E-08,  avg # of iterations =  2.0

     negative rho (up, down):  9.233E-02 0.000E+00

     total cpu time spent up to now is        7.3 secs

     total energy              =      -2.31244923 Ry
     estimated scf accuracy    <       0.00000002 Ry

     iteration #  5     ecut=    20.00 Ry     beta= 0.70
     Davidson diagonalization with overlap

---- Real-time Memory Report at c_bands before calling an iterative solver
           278 MiB given to the printing process from OS
             0 MiB allocation reported by mallinfo(arena+hblkhd)
           290 MiB available memory on the node where the printing process lives
------------------
     ethr =  8.90E-10,  avg # of iterations =  3.0

     negative rho (up, down):  9.232E-02 0.000E+00

     total cpu time spent up to now is        7.9 secs

     End of self-consistent calculation

          k =-0.5000-0.5000-0.5000 ( 40800 PWs)   bands (ev):

   -10.5843  -1.3747

     occupation numbers 
     1.0000   0.0000

     highest occupied, lowest unoccupied level (ev):   -10.5843   -1.3747

!    total energy              =      -2.31245799 Ry
     estimated scf accuracy    <          4.2E-10 Ry

     The total energy is the sum of the following terms:
     one-electron contribution =      -4.24931443 Ry
     hartree contribution      =       2.27192286 Ry
     xc contribution           =      -1.39802223 Ry
     ewald contribution        =       1.06295580 Ry

     convergence has been achieved in   5 iterations

     Forces acting on atoms (cartesian axes, Ry/au):

     atom    1 type  1   force =    -0.02514380    0.00000000    0.00000000
     atom    2 type  1   force =     0.02514380    0.00000000    0.00000000
     The non-local contrib.  to forces
     atom    1 type  1   force =     0.09599185    0.00000000    0.00000000
     atom    2 type  1   force =    -0.09755241    0.00000000    0.00000000
     The ionic contribution  to forces
     atom    1 type  1   force =    -1.03775283    0.00000000   -0.00000000
     atom    2 type  1   force =     1.03775283   -0.00000000   -0.00000000
     The local contribution  to forces
     atom    1 type  1   force =     0.91579238    0.00000000    0.00000000
     atom    2 type  1   force =    -0.91576752    0.00000000    0.00000000
     The core correction contribution to forces
     atom    1 type  1   force =     0.00000000    0.00000000    0.00000000
     atom    2 type  1   force =     0.00000000    0.00000000    0.00000000
     The Hubbard contrib.    to forces
     atom    1 type  1   force =     0.00000000    0.00000000    0.00000000
     atom    2 type  1   force =     0.00000000    0.00000000    0.00000000
     The SCF correction term to forces
     atom    1 type  1   force =    -0.00007172    0.00000000    0.00000000
     atom    2 type  1   force =    -0.00018559    0.00000000   -0.00000000

     Total force =     0.035559     Total SCF correction =     0.000199
     Energy error            =      5.0E-04 Ry
     Gradient error          =      2.5E-02 Ry/Bohr

     number of scf cycles    =   2
     number of bfgs steps    =   1

     energy             old  =      -2.3129590784 Ry
     energy             new  =      -2.3124579940 Ry

     CASE: energy            _new > energy            _old

     new trust radius        =       0.0189411953 bohr
     new conv_thr            =       0.0000000100 Ry


ATOMIC_POSITIONS (angstrom)
H             0.0100232489        0.0000000000        0.0000000000
H             0.7699767511        0.0000000000        0.0000000000



     Writing config-only to output data dir ./.save/
     NEW-OLD atomic charge density approx. for the potential

     negative rho (up, down):  9.315E-02 0.000E+00

     total cpu time spent up to now is        8.6 secs

     Self-consistent Calculation

     iteration #  1     ecut=    20.00 Ry     beta= 0.70
     Davidson diagonalization with overlap

---- Real-time Memory Report at c_bands before calling an iterative solver
           278 MiB given to the printing process from OS
             0 MiB allocation reported by mallinfo(arena+hblkhd)
           417 MiB available memory on the node where the printing process lives
------------------
     ethr =  1.00E-06,  avg # of iterations =  3.0

     negative rho (up, down):  9.149E-02 0.000E+00

     total cpu time spent up to now is        9.2 secs

     total energy              =      -2.31314073 Ry
     estimated scf accuracy    <       0.00017799 Ry

     iteration #  2     ecut=    20.00 Ry     beta= 0.70
     Davidson diagonalization with overlap

---- Real-time Memory Report at c_bands before calling an iterative solver
           278 MiB given to the printing process from OS
             0 MiB allocation reported by mallinfo(arena+hblkhd)
           320 MiB available memory on the node where the printing process lives
------------------
     ethr =  8.90E-06,  avg # of iterations =  1.0

     negative rho (up, down):  9.115E-02 0.000E+00

     total cpu time spent up to now is        9.8 secs

     total energy              =      -2.31338941 Ry
     estimated scf accuracy    <       0.00000296 Ry

     iteration #  3     ecut=    20.00 Ry     beta= 0.70
     Davidson diagonalization with overlap

---- Real-time Memory Report at c_bands before calling an iterative solver
           278 MiB given to the printing process from OS
             0 MiB allocation reported by mallinfo(arena+hblkhd)
           310 MiB available memory on the node where the printing process lives
------------------
     ethr =  1.48E-07,  avg # of iterations =  3.0

     negative rho (up, down):  9.124E-02 0.000E+00

     total cpu time spent up to now is       10.5 secs

     total energy              =      -2.31333412 Ry
     estimated scf accuracy    <       0.00000043 Ry

     iteration #  4     ecut=    20.00 Ry     beta= 0.70
     Davidson diagonalization with overlap

---- Real-time Memory Report at c_bands before calling an iterative solver
           278 MiB given to the printing process from OS
             0 MiB allocation reported by mallinfo(arena+hblkhd)
           300 MiB available memory on the node where the printing process lives
------------------
     ethr =  2.14E-08,  avg # of iterations =  2.0

     negative rho (up, down):  9.119E-02 0.000E+00

     total cpu time spent up to now is       11.1 secs

     total energy              =      -2.31337316 Ry
     estimated scf accuracy    <       0.00000031 Ry

     iteration #  5     ecut=    20.00 Ry     beta= 0.70
     Davidson diagonalization with overlap

---- Real-time Memory Report at c_bands before calling an iterative solver
           278 MiB given to the printing process from OS
             0 MiB allocation reported by mallinfo(arena+hblkhd)
           290 MiB available memory on the node where the printing process lives
------------------
     ethr =  1.57E-08,  avg # of iterations =  2.0

     negative rho (up, down):  9.120E-02 0.000E+00

     total cpu time spent up to now is       11.7 secs

     total energy              =      -2.31336113 Ry
     estimated scf accuracy    <       0.00000003 Ry

     iteration #  6     ecut=    20.00 Ry     beta= 0.70
     Davidson diagonalization with overlap

---- Real-time Memory Report at c_bands before calling an iterative solver
           288 MiB given to the printing process from OS
             0 MiB allocation reported by mallinfo(arena+hblkhd)
           279 MiB available memory on the node where the printing process lives
------------------
     ethr =  1.58E-09,  avg # of iterations =  3.0

     negative rho (up, down):  9.120E-02 0.000E+00

     total cpu time spent up to now is       12.4 secs

     total energy              =      -2.31336217 Ry
     estimated scf accuracy    <       0.00000002 Ry

     iteration #  7     ecut=    20.00 Ry     beta= 0.70
     Davidson diagonalization with overlap

---- Real-time Memory Report at c_bands before calling an iterative solver
           298 MiB given to the printing process from OS
             0 MiB allocation reported by mallinfo(arena+hblkhd)
           270 MiB available memory on the node where the printing process lives
------------------
     ethr =  8.35E-10,  avg # of iterations =  1.0

     negative rho (up, down):  9.119E-02 0.000E+00

     total cpu time spent up to now is       13.0 secs

     total energy              =      -2.31336652 Ry
     estimated scf accuracy    <       0.00000002 Ry

     iteration #  8     ecut=    20.00 Ry     beta= 0.70
     Davidson diagonalization with overlap

---- Real-time Memory Report at c_bands before calling an iterative solver
           308 MiB given to the printing process from OS
             0 MiB allocation reported by mallinfo(arena+hblkhd)
           260 MiB available memory on the node where the printing process lives
------------------
     ethr =  7.70E-10,  avg # of iterations =  3.0

     negative rho (up, down):  9.118E-02 0.000E+00

     total cpu time spent up to now is       13.6 secs

     End of self-consistent calculation

          k =-0.5000-0.5000-0.5000 ( 40800 PWs)   bands (ev):

   -10.4569  -1.3971

     occupation numbers 
     1.0000   0.0000

     highest occupied, lowest unoccupied level (ev):   -10.4569   -1.3971

!    total energy              =      -2.31338409 Ry
     estimated scf accuracy    <          2.5E-09 Ry

     The total energy is the sum of the following terms:
     one-electron contribution =      -4.18390556 Ry
     hartree contribution      =       2.23790663 Ry
     xc contribution           =      -1.38205667 Ry
     ewald contribution        =       1.01467151 Ry

     convergence has been achieved in   8 iterations

     Forces acting on atoms (cartesian axes, Ry/au):

     atom    1 type  1   force =     0.01405881    0.00000000    0.00000000
     atom    2 type  1   force =    -0.01405881    0.00000000    0.00000000
     The non-local contrib.  to forces
     atom    1 type  1   force =     0.09402699    0.00000000    0.00000000
     atom    2 type  1   force =    -0.09381464    0.00000000    0.00000000
     The ionic contribution  to forces
     atom    1 type  1   force =    -0.96929787    0.00000000   -0.00000000
     atom    2 type  1   force =     0.96929787   -0.00000000   -0.00000000
     The local contribution  to forces
     atom    1 type  1   force =     0.88946227    0.00000000    0.00000000
     atom    2 type  1   force =    -0.88940036    0.00000000    0.00000000
     The core correction contribution to forces
     atom    1 type  1   force =     0.00000000    0.00000000    0.00000000
     atom    2 type  1   force =     0.00000000    0.00000000    0.00000000
     The Hubbard contrib.    to forces
     atom    1 type  1   force =     0.00000000    0.00000000    0.00000000
     atom    2 type  1   force =     0.00000000    0.00000000    0.00000000
     The SCF correction term to forces
     atom    1 type  1   force =    -0.00011555    0.00000000    0.00000000
     atom    2 type  1   force =    -0.00012465   -0.00000000    0.00000000

     Total force =     0.019882     Total SCF correction =     0.000170
     Energy error            =      4.3E-04 Ry
     Gradient error          =      1.4E-02 Ry/Bohr

     number of scf cycles    =   3
     number of bfgs steps    =   1

     energy             old  =      -2.3129590784 Ry
     energy             new  =      -2.3133840862 Ry

     CASE: energy            _new < energy            _old

     new trust radius        =       0.0091971158 bohr
     new conv_thr            =       0.0000000004 Ry


ATOMIC_POSITIONS (angstrom)
H             0.0148901530        0.0000000000        0.0000000000
H             0.7651098470        0.0000000000        0.0000000000



     Writing config-only to output data dir ./.save/
     NEW-OLD atomic charge density approx. for the potential

     negative rho (up, down):  9.079E-02 0.000E+00

     total cpu time spent up to now is       14.2 secs

     Self-consistent Calculation

     iteration #  1     ecut=    20.00 Ry     beta= 0.70
     Davidson diagonalization with overlap

---- Real-time Memory Report at c_bands before calling an iterative solver
           308 MiB given to the printing process from OS
             0 MiB allocation reported by mallinfo(arena+hblkhd)
           417 MiB available memory on the node where the printing process lives
------------------
     ethr =  1.00E-06,  avg # of iterations =  3.0

     negative rho (up, down):  9.149E-02 0.000E+00

     total cpu time spent up to now is       14.9 secs

     total energy              =      -2.31335969 Ry
     estimated scf accuracy    <       0.00002576 Ry

     iteration #  2     ecut=    20.00 Ry     beta= 0.70
     Davidson diagonalization with overlap

---- Real-time Memory Report at c_bands before calling an iterative solver
           308 MiB given to the printing process from OS
             0 MiB allocation reported by mallinfo(arena+hblkhd)
           319 MiB available memory on the node where the printing process lives
------------------
     ethr =  1.29E-06,  avg # of iterations =  2.0

     negative rho (up, down):  9.161E-02 0.000E+00

     total cpu time spent up to now is       15.5 secs

     total energy              =      -2.31329031 Ry
     estimated scf accuracy    <       0.00000032 Ry

     iteration #  3     ecut=    20.00 Ry     beta= 0.70
     Davidson diagonalization with overlap

---- Real-time Memory Report at c_bands before calling an iterative solver
           308 MiB given to the printing process from OS
             0 MiB allocation reported by mallinfo(arena+hblkhd)
           310 MiB available memory on the node where the printing process lives
------------------
     ethr =  1.59E-08,  avg # of iterations =  2.0

     negative rho (up, down):  9.165E-02 0.000E+00

     total cpu time spent up to now is       16.1 secs

     total energy              =      -2.31326170 Ry
     estimated scf accuracy    <       0.00000001 Ry

     iteration #  4     ecut=    20.00 Ry     beta= 0.70
     Davidson diagonalization with overlap

---- Real-time Memory Report at c_bands before calling an iterative solver
           308 MiB given to the printing process from OS
             0 MiB allocation reported by mallinfo(arena+hblkhd)
           300 MiB available memory on the node where the printing process lives
------------------
     ethr =  5.33E-10,  avg # of iterations =  4.0

     negative rho (up, down):  9.164E-02 0.000E+00

     total cpu time spent up to now is       16.8 secs

     total energy              =      -2.31327155 Ry
     estimated scf accuracy    <       0.00000002 Ry

     iteration #  5     ecut=    20.00 Ry     beta= 0.70
     Davidson diagonalization with overlap

---- Real-time Memory Report at c_bands before calling an iterative solver
           308 MiB given to the printing process from OS
             0 MiB allocation reported by mallinfo(arena+hblkhd)
           290 MiB available memory on the node where the printing process lives
------------------
     ethr =  5.33E-10,  avg # of iterations =  3.0

     negative rho (up, down):  9.164E-02 0.000E+00

     total cpu time spent up to now is       17.4 secs

     total energy              =      -2.31327204 Ry
     estimated scf accuracy    <          2.1E-09 Ry

     iteration #  6     ecut=    20.00 Ry     beta= 0.70
     Davidson diagonalization with overlap

---- Real-time Memory Report at c_bands before calling an iterative solver
           308 MiB given to the printing process from OS
             0 MiB allocation reported by mallinfo(arena+hblkhd)
           280 MiB available memory on the node where the printing process lives
------------------
     ethr =  1.07E-10,  avg # of iterations =  2.0

     negative rho (up, down):  9.164E-02 0.000E+00

     total cpu time spent up to now is       18.0 secs

     total energy              =      -2.31327176 Ry
     estimated scf accuracy    <          1.8E-09 Ry

     iteration #  7     ecut=    20.00 Ry     beta= 0.70
     Davidson diagonalization with overlap

---- Real-time Memory Report at c_bands before calling an iterative solver
           308 MiB given to the printing process from OS
             0 MiB allocation reported by mallinfo(arena+hblkhd)
           270 MiB available memory on the node where the printing process lives
------------------
     ethr =  8.77E-11,  avg # of iterations =  2.0

     negative rho (up, down):  9.164E-02 0.000E+00

     total cpu time spent up to now is       18.7 secs

     total energy              =      -2.31327388 Ry
     estimated scf accuracy    <          1.6E-09 Ry

     iteration #  8     ecut=    20.00 Ry     beta= 0.70
     Davidson diagonalization with overlap

---- Real-time Memory Report at c_bands before calling an iterative solver
           308 MiB given to the printing process from OS
             0 MiB allocation reported by mallinfo(arena+hblkhd)
           260 MiB available memory on the node where the printing process lives
------------------
     ethr =  8.04E-11,  avg # of iterations =  4.0

     negative rho (up, down):  9.164E-02 0.000E+00

     total cpu time spent up to now is       19.4 secs

     total energy              =      -2.31327488 Ry
     estimated scf accuracy    <       0.00000002 Ry

     iteration #  9     ecut=    20.00 Ry     beta= 0.70
     Davidson diagonalization with overlap

---- Real-time Memory Report at c_bands before calling an iterative solver
           318 MiB given to the printing process from OS
             0 MiB allocation reported by mallinfo(arena+hblkhd)
           250 MiB available memory on the node where the printing process lives
------------------
     ethr =  8.04E-11,  avg # of iterations =  1.0

     negative rho (up, down):  9.164E-02 0.000E+00

     total cpu time spent up to now is       20.0 secs

     total energy              =      -2.31326889 Ry
     estimated scf accuracy    <       0.00000002 Ry

     iteration # 10     ecut=    20.00 Ry     beta= 0.70
     Davidson diagonalization with overlap

---- Real-time Memory Report at c_bands before calling an iterative solver
           328 MiB given to the printing process from OS
             0 MiB allocation reported by mallinfo(arena+hblkhd)
           240 MiB available memory on the node where the printing process lives
------------------
     ethr =  8.04E-11,  avg # of iterations =  4.0

     negative rho (up, down):  9.164E-02 0.000E+00

     total cpu time spent up to now is       20.7 secs

     total energy              =      -2.31327015 Ry
     estimated scf accuracy    <          4.5E-09 Ry

     iteration # 11     ecut=    20.00 Ry     beta= 0.70
     Davidson diagonalization with overlap

---- Real-time Memory Report at c_bands before calling an iterative solver
           328 MiB given to the printing process from OS
             0 MiB allocation reported by mallinfo(arena+hblkhd)
           240 MiB available memory on the node where the printing process lives
------------------
     ethr =  8.04E-11,  avg # of iterations =  2.0

     negative rho (up, down):  9.164E-02 0.000E+00

     total cpu time spent up to now is       21.3 secs

     total energy              =      -2.31326953 Ry
     estimated scf accuracy    <          3.2E-09 Ry

     iteration # 12     ecut=    20.00 Ry     beta= 0.70
     Davidson diagonalization with overlap

---- Real-time Memory Report at c_bands before calling an iterative solver
           328 MiB given to the printing process from OS
             0 MiB allocation reported by mallinfo(arena+hblkhd)
           240 MiB available memory on the node where the printing process lives
------------------
     ethr =  8.04E-11,  avg # of iterations =  2.0

     negative rho (up, down):  9.163E-02 0.000E+00

     total cpu time spent up to now is       22.0 secs

     total energy              =      -2.31328138 Ry
     estimated scf accuracy    <          3.7E-09 Ry

     iteration # 13     ecut=    20.00 Ry     beta= 0.70
     Davidson diagonalization with overlap

---- Real-time Memory Report at c_bands before calling an iterative solver
           328 MiB given to the printing process from OS
             0 MiB allocation reported by mallinfo(arena+hblkhd)
           240 MiB available memory on the node where the printing process lives
------------------
     ethr =  8.04E-11,  avg # of iterations =  3.0

     negative rho (up, down):  9.163E-02 0.000E+00

     total cpu time spent up to now is       22.7 secs

     total energy              =      -2.31328414 Ry
     estimated scf accuracy    <          1.7E-09 Ry

     iteration # 14     ecut=    20.00 Ry     beta= 0.70
     Davidson diagonalization with overlap

---- Real-time Memory Report at c_bands before calling an iterative solver
           328 MiB given to the printing process from OS
             0 MiB allocation reported by mallinfo(arena+hblkhd)
           240 MiB available memory on the node where the printing process lives
------------------
     ethr =  8.04E-11,  avg # of iterations =  4.0

     negative rho (up, down):  9.163E-02 0.000E+00

     total cpu time spent up to now is       23.4 secs

     total energy              =      -2.31327910 Ry
     estimated scf accuracy    <          8.8E-09 Ry

     iteration # 15     ecut=    20.00 Ry     beta= 0.70
     Davidson diagonalization with overlap

---- Real-time Memory Report at c_bands before calling an iterative solver
           328 MiB given to the printing process from OS
             0 MiB allocation reported by mallinfo(arena+hblkhd)
           240 MiB available memory on the node where the printing process lives
------------------
     ethr =  8.04E-11,  avg # of iterations =  4.0

     negative rho (up, down):  9.163E-02 0.000E+00

     total cpu time spent up to now is       24.1 secs

     total energy              =      -2.31328306 Ry
     estimated scf accuracy    <       0.00000001 Ry

     iteration # 16     ecut=    20.00 Ry     beta= 0.70
     Davidson diagonalization with overlap

---- Real-time Memory Report at c_bands before calling an iterative solver
           328 MiB given to the printing process from OS
             0 MiB allocation reported by mallinfo(arena+hblkhd)
           240 MiB available memory on the node where the printing process lives
------------------
     ethr =  8.04E-11,  avg # of iterations =  4.0

     negative rho (up, down):  9.163E-02 0.000E+00

     total cpu time spent up to now is       24.8 secs

     total energy              =      -2.31328347 Ry
     estimated scf accuracy    <          5.6E-09 Ry

     iteration # 17     ecut=    20.00 Ry     beta= 0.70
     Davidson diagonalization with overlap

---- Real-time Memory Report at c_bands before calling an iterative solver
           328 MiB given to the printing process from OS
             0 MiB allocation reported by mallinfo(arena+hblkhd)
           240 MiB available memory on the node where the printing process lives
------------------
     ethr =  8.04E-11,  avg # of iterations =  2.0

     negative rho (up, down):  9.163E-02 0.000E+00

     total cpu time spent up to now is       25.4 secs

     total energy              =      -2.31327626 Ry
     estimated scf accuracy    <          6.3E-09 Ry

     iteration # 18     ecut=    20.00 Ry     beta= 0.70
     Davidson diagonalization with overlap

---- Real-time Memory Report at c_bands before calling an iterative solver
           328 MiB given to the printing process from OS
             0 MiB allocation reported by mallinfo(arena+hblkhd)
           240 MiB available memory on the node where the printing process lives
------------------
     ethr =  8.04E-11,  avg # of iterations =  4.0

     negative rho (up, down):  9.163E-02 0.000E+00

     total cpu time spent up to now is       26.1 secs

     total energy              =      -2.31328279 Ry
     estimated scf accuracy    <          5.5E-10 Ry

     iteration # 19     ecut=    20.00 Ry     beta= 0.70
     Davidson diagonalization with overlap

---- Real-time Memory Report at c_bands before calling an iterative solver
           328 MiB given to the printing process from OS
             0 MiB allocation reported by mallinfo(arena+hblkhd)
           240 MiB available memory on the node where the printing process lives
------------------
     ethr =  2.75E-11,  avg # of iterations =  4.0

     negative rho (up, down):  9.162E-02 0.000E+00

     total cpu time spent up to now is       26.8 secs

     total energy              =      -2.31328361 Ry
     estimated scf accuracy    <          3.4E-09 Ry

     iteration # 20     ecut=    20.00 Ry     beta= 0.70
     Davidson diagonalization with overlap

---- Real-time Memory Report at c_bands before calling an iterative solver
           328 MiB given to the printing process from OS
             0 MiB allocation reported by mallinfo(arena+hblkhd)
           240 MiB available memory on the node where the printing process lives
------------------
     ethr =  2.75E-11,  avg # of iterations =  3.0

     negative rho (up, down):  9.162E-02 0.000E+00

     total cpu time spent up to now is       27.5 secs

     total energy              =      -2.31329027 Ry
     estimated scf accuracy    <          3.8E-09 Ry

     iteration # 21     ecut=    20.00 Ry     beta= 0.70
     Davidson diagonalization with overlap

---- Real-time Memory Report at c_bands before calling an iterative solver
           328 MiB given to the printing process from OS
             0 MiB allocation reported by mallinfo(arena+hblkhd)
           240 MiB available memory on the node where the printing process lives
------------------
     ethr =  2.75E-11,  avg # of iterations =  4.0

     negative rho (up, down):  9.164E-02 0.000E+00

     total cpu time spent up to now is       28.2 secs

     total energy              =      -2.31326885 Ry
     estimated scf accuracy    <       0.00000003 Ry

     iteration # 22     ecut=    20.00 Ry     beta= 0.70
     Davidson diagonalization with overlap

---- Real-time Memory Report at c_bands before calling an iterative solver
           328 MiB given to the printing process from OS
             0 MiB allocation reported by mallinfo(arena+hblkhd)
           240 MiB available memory on the node where the printing process lives
------------------
     ethr =  2.75E-11,  avg # of iterations =  5.0

     negative rho (up, down):  9.164E-02 0.000E+00

     total cpu time spent up to now is       28.9 secs

     total energy              =      -2.31327603 Ry
     estimated scf accuracy    <       0.00000003 Ry

     iteration # 23     ecut=    20.00 Ry     beta= 0.70
     Davidson diagonalization with overlap

---- Real-time Memory Report at c_bands before calling an iterative solver
           328 MiB given to the printing process from OS
             0 MiB allocation reported by mallinfo(arena+hblkhd)
           240 MiB available memory on the node where the printing process lives
------------------
     ethr =  2.75E-11,  avg # of iterations =  4.0

     negative rho (up, down):  9.164E-02 0.000E+00

     total cpu time spent up to now is       29.6 secs

     total energy              =      -2.31327598 Ry
     estimated scf accuracy    <          9.1E-09 Ry

     iteration # 24     ecut=    20.00 Ry     beta= 0.70
     Davidson diagonalization with overlap

---- Real-time Memory Report at c_bands before calling an iterative solver
           328 MiB given to the printing process from OS
             0 MiB allocation reported by mallinfo(arena+hblkhd)
           240 MiB available memory on the node where the printing process lives
------------------
     ethr =  2.75E-11,  avg # of iterations =  4.0

     negative rho (up, down):  9.164E-02 0.000E+00

     total cpu time spent up to now is       30.3 secs

     total energy              =      -2.31327507 Ry
     estimated scf accuracy    <          1.6E-09 Ry

     iteration # 25     ecut=    20.00 Ry     beta= 0.70
     Davidson diagonalization with overlap

---- Real-time Memory Report at c_bands before calling an iterative solver
           328 MiB given to the printing process from OS
             0 MiB allocation reported by mallinfo(arena+hblkhd)
           240 MiB available memory on the node where the printing process lives
------------------
     ethr =  2.75E-11,  avg # of iterations =  3.0

     negative rho (up, down):  9.164E-02 0.000E+00

     total cpu time spent up to now is       30.9 secs

     total energy              =      -2.31327507 Ry
     estimated scf accuracy    <          5.9E-09 Ry

     iteration # 26     ecut=    20.00 Ry     beta= 0.70
     Davidson diagonalization with overlap

---- Real-time Memory Report at c_bands before calling an iterative solver
           328 MiB given to the printing process from OS
             0 MiB allocation reported by mallinfo(arena+hblkhd)
           240 MiB available memory on the node where the printing process lives
------------------
     ethr =  2.75E-11,  avg # of iterations =  1.0

     negative rho (up, down):  9.164E-02 0.000E+00

     total cpu time spent up to now is       31.6 secs

     total energy              =      -2.31327505 Ry
     estimated scf accuracy    <          6.0E-09 Ry

     iteration # 27     ecut=    20.00 Ry     beta= 0.70
     Davidson diagonalization with overlap

---- Real-time Memory Report at c_bands before calling an iterative solver
           328 MiB given to the printing process from OS
             0 MiB allocation reported by mallinfo(arena+hblkhd)
           240 MiB available memory on the node where the printing process lives
------------------
     ethr =  2.75E-11,  avg # of iterations =  1.0

     negative rho (up, down):  9.164E-02 0.000E+00

     total cpu time spent up to now is       32.2 secs

     total energy              =      -2.31327536 Ry
     estimated scf accuracy    <          6.1E-09 Ry

     iteration # 28     ecut=    20.00 Ry     beta= 0.70
     Davidson diagonalization with overlap

---- Real-time Memory Report at c_bands before calling an iterative solver
           328 MiB given to the printing process from OS
             0 MiB allocation reported by mallinfo(arena+hblkhd)
           240 MiB available memory on the node where the printing process lives
------------------
     ethr =  2.75E-11,  avg # of iterations =  2.0

     negative rho (up, down):  9.164E-02 0.000E+00

     total cpu time spent up to now is       32.9 secs

     total energy              =      -2.31327563 Ry
     estimated scf accuracy    <          5.3E-09 Ry

     iteration # 29     ecut=    20.00 Ry     beta= 0.70
     Davidson diagonalization with overlap

---- Real-time Memory Report at c_bands before calling an iterative solver
           328 MiB given to the printing process from OS
             0 MiB allocation reported by mallinfo(arena+hblkhd)
           240 MiB available memory on the node where the printing process lives
------------------
     ethr =  2.75E-11,  avg # of iterations =  2.0

     negative rho (up, down):  9.163E-02 0.000E+00

     total cpu time spent up to now is       33.5 secs

     total energy              =      -2.31328294 Ry
     estimated scf accuracy    <          5.0E-09 Ry

     iteration # 30     ecut=    20.00 Ry     beta= 0.70
     Davidson diagonalization with overlap

---- Real-time Memory Report at c_bands before calling an iterative solver
           328 MiB given to the printing process from OS
             0 MiB allocation reported by mallinfo(arena+hblkhd)
           240 MiB available memory on the node where the printing process lives
------------------
     ethr =  2.75E-11,  avg # of iterations =  4.0

     negative rho (up, down):  9.164E-02 0.000E+00

     total cpu time spent up to now is       34.2 secs

     total energy              =      -2.31327523 Ry
     estimated scf accuracy    <          3.5E-09 Ry

     iteration # 31     ecut=    20.00 Ry     beta= 0.70
     Davidson diagonalization with overlap

---- Real-time Memory Report at c_bands before calling an iterative solver
           328 MiB given to the printing process from OS
             0 MiB allocation reported by mallinfo(arena+hblkhd)
           240 MiB available memory on the node where the printing process lives
------------------
     ethr =  2.75E-11,  avg # of iterations =  4.0

     negative rho (up, down):  9.164E-02 0.000E+00

     total cpu time spent up to now is       34.9 secs

     total energy              =      -2.31328389 Ry
     estimated scf accuracy    <          6.5E-09 Ry

     iteration # 32     ecut=    20.00 Ry     beta= 0.70
     Davidson diagonalization with overlap

---- Real-time Memory Report at c_bands before calling an iterative solver
           328 MiB given to the printing process from OS
             0 MiB allocation reported by mallinfo(arena+hblkhd)
           240 MiB available memory on the node where the printing process lives
------------------
     ethr =  2.75E-11,  avg # of iterations =  4.0

     negative rho (up, down):  9.163E-02 0.000E+00

     total cpu time spent up to now is       35.6 secs

     total energy              =      -2.31328316 Ry
     estimated scf accuracy    <          1.2E-09 Ry

     iteration # 33     ecut=    20.00 Ry     beta= 0.70
     Davidson diagonalization with overlap

---- Real-time Memory Report at c_bands before calling an iterative solver
           328 MiB given to the printing process from OS
             0 MiB allocation reported by mallinfo(arena+hblkhd)
           240 MiB available memory on the node where the printing process lives
------------------
     ethr =  2.75E-11,  avg # of iterations =  2.0

     negative rho (up, down):  9.163E-02 0.000E+00

     total cpu time spent up to now is       36.3 secs

     total energy              =      -2.31328528 Ry
     estimated scf accuracy    <          2.2E-09 Ry

     iteration # 34     ecut=    20.00 Ry     beta= 0.70
     Davidson diagonalization with overlap

---- Real-time Memory Report at c_bands before calling an iterative solver
           328 MiB given to the printing process from OS
             0 MiB allocation reported by mallinfo(arena+hblkhd)
           240 MiB available memory on the node where the printing process lives
------------------
     ethr =  2.75E-11,  avg # of iterations =  2.0

     negative rho (up, down):  9.163E-02 0.000E+00

     total cpu time spent up to now is       36.9 secs

     total energy              =      -2.31328357 Ry
     estimated scf accuracy    <          3.6E-09 Ry

     iteration # 35     ecut=    20.00 Ry     beta= 0.70
     Davidson diagonalization with overlap

---- Real-time Memory Report at c_bands before calling an iterative solver
           328 MiB given to the printing process from OS
             0 MiB allocation reported by mallinfo(arena+hblkhd)
           240 MiB available memory on the node where the printing process lives
------------------
     ethr =  2.75E-11,  avg # of iterations =  2.0

     negative rho (up, down):  9.163E-02 0.000E+00

     total cpu time spent up to now is       37.6 secs

     total energy              =      -2.31328506 Ry
     estimated scf accuracy    <          3.3E-09 Ry

     iteration # 36     ecut=    20.00 Ry     beta= 0.70
     Davidson diagonalization with overlap

---- Real-time Memory Report at c_bands before calling an iterative solver
           328 MiB given to the printing process from OS
             0 MiB allocation reported by mallinfo(arena+hblkhd)
           240 MiB available memory on the node where the printing process lives
------------------
     ethr =  2.75E-11,  avg # of iterations =  2.0

     negative rho (up, down):  9.163E-02 0.000E+00

     total cpu time spent up to now is       38.2 secs

     total energy              =      -2.31328496 Ry
     estimated scf accuracy    <          2.6E-09 Ry

     iteration # 37     ecut=    20.00 Ry     beta= 0.70
     Davidson diagonalization with overlap

---- Real-time Memory Report at c_bands before calling an iterative solver
           328 MiB given to the printing process from OS
             0 MiB allocation reported by mallinfo(arena+hblkhd)
           240 MiB available memory on the node where the printing process lives
------------------
     ethr =  2.75E-11,  avg # of iterations =  1.0

     negative rho (up, down):  9.163E-02 0.000E+00

     total cpu time spent up to now is       38.9 secs

     total energy              =      -2.31328457 Ry
     estimated scf accuracy    <          2.4E-09 Ry

     iteration # 38     ecut=    20.00 Ry     beta= 0.70
     Davidson diagonalization with overlap

---- Real-time Memory Report at c_bands before calling an iterative solver
           328 MiB given to the printing process from OS
             0 MiB allocation reported by mallinfo(arena+hblkhd)
           240 MiB available memory on the node where the printing process lives
------------------
     ethr =  2.75E-11,  avg # of iterations =  2.0

     negative rho (up, down):  9.164E-02 0.000E+00

     total cpu time spent up to now is       39.5 secs

     total energy              =      -2.31328268 Ry
     estimated scf accuracy    <          1.3E-09 Ry

     iteration # 39     ecut=    20.00 Ry     beta= 0.70
     Davidson diagonalization with overlap

---- Real-time Memory Report at c_bands before calling an iterative solver
           328 MiB given to the printing process from OS
             0 MiB allocation reported by mallinfo(arena+hblkhd)
           240 MiB available memory on the node where the printing process lives
------------------
     ethr =  2.75E-11,  avg # of iterations =  2.0

     negative rho (up, down):  9.164E-02 0.000E+00

     total cpu time spent up to now is       40.2 secs

     total energy              =      -2.31328240 Ry
     estimated scf accuracy    <          8.6E-10 Ry

     iteration # 40     ecut=    20.00 Ry     beta= 0.70
     Davidson diagonalization with overlap

---- Real-time Memory Report at c_bands before calling an iterative solver
           328 MiB given to the printing process from OS
             0 MiB allocation reported by mallinfo(arena+hblkhd)
           240 MiB available memory on the node where the printing process lives
------------------
     ethr =  2.75E-11,  avg # of iterations =  2.0

     negative rho (up, down):  9.164E-02 0.000E+00

     total cpu time spent up to now is       40.7 secs

     End of self-consistent calculation

          k =-0.5000-0.5000-0.5000 ( 40800 PWs)   bands (ev):

   -10.5050  -1.3861

     occupation numbers 
     1.0000   0.0000

     highest occupied, lowest unoccupied level (ev):   -10.5050   -1.3861

!    total energy              =      -2.31327608 Ry
     estimated scf accuracy    <          4.2E-10 Ry

     The total energy is the sum of the following terms:
     one-electron contribution =      -4.20872506 Ry
     hartree contribution      =       2.25089956 Ry
     xc contribution           =      -1.38818307 Ry
     ewald contribution        =       1.03273249 Ry

     convergence has been achieved in  40 iterations

     Forces acting on atoms (cartesian axes, Ry/au):

     atom    1 type  1   force =    -0.00074811    0.00000000    0.00000000
     atom    2 type  1   force =     0.00074811    0.00000000    0.00000000
     The non-local contrib.  to forces
     atom    1 type  1   force =     0.09390497    0.00000000    0.00000000
     atom    2 type  1   force =    -0.09495142    0.00000000    0.00000000
     The ionic contribution  to forces
     atom    1 type  1   force =    -0.99463111    0.00000000   -0.00000000
     atom    2 type  1   force =     0.99463111    0.00000000   -0.00000000
     The local contribution  to forces
     atom    1 type  1   force =     0.89952230    0.00000000    0.00000000
     atom    2 type  1   force =    -0.89950183    0.00000000    0.00000000
     The core correction contribution to forces
     atom    1 type  1   force =     0.00000000    0.00000000    0.00000000
     atom    2 type  1   force =     0.00000000    0.00000000    0.00000000
     The Hubbard contrib.    to forces
     atom    1 type  1   force =     0.00000000    0.00000000    0.00000000
     atom    2 type  1   force =     0.00000000    0.00000000    0.00000000
     The SCF correction term to forces
     atom    1 type  1   force =    -0.00017355    0.00000000   -0.00000000
     atom    2 type  1   force =    -0.00005902   -0.00000000   -0.00000000

     Total force =     0.001058     Total SCF correction =     0.000183
     SCF correction compared to forces is large: reduce conv_thr to get better values
     Energy error            =      1.1E-04 Ry
     Gradient error          =      7.5E-04 Ry/Bohr

     number of scf cycles    =   4
     number of bfgs steps    =   2

     energy             old  =      -2.3133840862 Ry
     energy             new  =      -2.3132760786 Ry

     CASE: energy            _new > energy            _old

     new trust radius        =       0.0032437642 bohr
     new conv_thr            =       0.0000000004 Ry


ATOMIC_POSITIONS (angstrom)
H             0.0117397750        0.0000000000        0.0000000000
H             0.7682602250        0.0000000000        0.0000000000



     Writing config-only to output data dir ./.save/
     NEW-OLD atomic charge density approx. for the potential

     negative rho (up, down):  9.187E-02 0.000E+00

     total cpu time spent up to now is       41.4 secs

     Self-consistent Calculation

     iteration #  1     ecut=    20.00 Ry     beta= 0.70
     Davidson diagonalization with overlap

---- Real-time Memory Report at c_bands before calling an iterative solver
           328 MiB given to the printing process from OS
             0 MiB allocation reported by mallinfo(arena+hblkhd)
           416 MiB available memory on the node where the printing process lives
------------------
     ethr =  1.00E-06,  avg # of iterations =  2.0

     negative rho (up, down):  9.147E-02 0.000E+00

     total cpu time spent up to now is       42.0 secs

     total energy              =      -2.31327308 Ry
     estimated scf accuracy    <       0.00000960 Ry

     iteration #  2     ecut=    20.00 Ry     beta= 0.70
     Davidson diagonalization with overlap

---- Real-time Memory Report at c_bands before calling an iterative solver
           328 MiB given to the printing process from OS
             0 MiB allocation reported by mallinfo(arena+hblkhd)
           319 MiB available memory on the node where the printing process lives
------------------
     ethr =  4.80E-07,  avg # of iterations =  2.0

     negative rho (up, down):  9.136E-02 0.000E+00

     total cpu time spent up to now is       42.6 secs

     total energy              =      -2.31334649 Ry
     estimated scf accuracy    <       0.00000026 Ry

     iteration #  3     ecut=    20.00 Ry     beta= 0.70
     Davidson diagonalization with overlap

---- Real-time Memory Report at c_bands before calling an iterative solver
           328 MiB given to the printing process from OS
             0 MiB allocation reported by mallinfo(arena+hblkhd)
           309 MiB available memory on the node where the printing process lives
------------------
     ethr =  1.31E-08,  avg # of iterations =  2.0

     negative rho (up, down):  9.137E-02 0.000E+00

     total cpu time spent up to now is       43.2 secs

     total energy              =      -2.31334280 Ry
     estimated scf accuracy    <       0.00000002 Ry

     iteration #  4     ecut=    20.00 Ry     beta= 0.70
     Davidson diagonalization with overlap

---- Real-time Memory Report at c_bands before calling an iterative solver
           328 MiB given to the printing process from OS
             0 MiB allocation reported by mallinfo(arena+hblkhd)
           299 MiB available memory on the node where the printing process lives
------------------
     ethr =  8.33E-10,  avg # of iterations =  3.0

     negative rho (up, down):  9.136E-02 0.000E+00

     total cpu time spent up to now is       43.9 secs

     total energy              =      -2.31335164 Ry
     estimated scf accuracy    <       0.00000001 Ry

     iteration #  5     ecut=    20.00 Ry     beta= 0.70
     Davidson diagonalization with overlap

---- Real-time Memory Report at c_bands before calling an iterative solver
           328 MiB given to the printing process from OS
             0 MiB allocation reported by mallinfo(arena+hblkhd)
           289 MiB available memory on the node where the printing process lives
------------------
     ethr =  5.38E-10,  avg # of iterations =  3.0

     negative rho (up, down):  9.136E-02 0.000E+00

     total cpu time spent up to now is       44.5 secs

     total energy              =      -2.31335452 Ry
     estimated scf accuracy    <          5.0E-10 Ry

     iteration #  6     ecut=    20.00 Ry     beta= 0.70
     Davidson diagonalization with overlap

---- Real-time Memory Report at c_bands before calling an iterative solver
           328 MiB given to the printing process from OS
             0 MiB allocation reported by mallinfo(arena+hblkhd)
           279 MiB available memory on the node where the printing process lives
------------------
     ethr =  2.49E-11,  avg # of iterations =  4.0

     negative rho (up, down):  9.136E-02 0.000E+00

     total cpu time spent up to now is       45.1 secs

     End of self-consistent calculation

          k =-0.5000-0.5000-0.5000 ( 40800 PWs)   bands (ev):

   -10.4734  -1.3914

     occupation numbers 
     1.0000   0.0000

     highest occupied, lowest unoccupied level (ev):   -10.4734   -1.3914

!    total energy              =      -2.31334799 Ry
     estimated scf accuracy    <          2.1E-10 Ry

     The total energy is the sum of the following terms:
     one-electron contribution =      -4.19269767 Ry
     hartree contribution      =       2.24260257 Ry
     xc contribution           =      -1.38424131 Ry
     ewald contribution        =       1.02098841 Ry

     convergence has been achieved in   6 iterations

     Forces acting on atoms (cartesian axes, Ry/au):

     atom    1 type  1   force =     0.00893476    0.00000000    0.00000000
     atom    2 type  1   force =    -0.00893476    0.00000000    0.00000000
     The non-local contrib.  to forces
     atom    1 type  1   force =     0.09402603    0.00000000    0.00000000
     atom    2 type  1   force =    -0.09401689    0.00000000    0.00000000
     The ionic contribution  to forces
     atom    1 type  1   force =    -0.97812122    0.00000000   -0.00000000
     atom    2 type  1   force =     0.97812122   -0.00000000   -0.00000000
     The local contribution  to forces
     atom    1 type  1   force =     0.89306945    0.00000000    0.00000000
     atom    2 type  1   force =    -0.89297465    0.00000000    0.00000000
     The core correction contribution to forces
     atom    1 type  1   force =     0.00000000    0.00000000    0.00000000
     atom    2 type  1   force =     0.00000000    0.00000000    0.00000000
     The Hubbard contrib.    to forces
     atom    1 type  1   force =     0.00000000    0.00000000    0.00000000
     atom    2 type  1   force =     0.00000000    0.00000000    0.00000000
     The SCF correction term to forces
     atom    1 type  1   force =     0.00002209   -0.00000000   -0.00000000
     atom    2 type  1   force =    -0.00000283   -0.00000000    0.00000000

     Total force =     0.012636     Total SCF correction =     0.000022
     Energy error            =      3.6E-05 Ry
     Gradient error          =      8.9E-03 Ry/Bohr

     number of scf cycles    =   5
     number of bfgs steps    =   2

     energy             old  =      -2.3133840862 Ry
     energy             new  =      -2.3133479881 Ry

     CASE: energy            _new > energy            _old

     new trust radius        =       0.0011619885 bohr
     new conv_thr            =       0.0000000004 Ry


ATOMIC_POSITIONS (angstrom)
H             0.0106381467        0.0000000000        0.0000000000
H             0.7693618533        0.0000000000        0.0000000000



     Writing config-only to output data dir ./.save/
     NEW-OLD atomic charge density approx. for the potential

     negative rho (up, down):  9.144E-02 0.000E+00

     total cpu time spent up to now is       45.8 secs

     Self-consistent Calculation

     iteration #  1     ecut=    20.00 Ry     beta= 0.70
     Davidson diagonalization with overlap

---- Real-time Memory Report at c_bands before calling an iterative solver
           328 MiB given to the printing process from OS
             0 MiB allocation reported by mallinfo(arena+hblkhd)
           417 MiB available memory on the node where the printing process lives
------------------
     ethr =  1.00E-06,  avg # of iterations =  2.0

     Threshold (ethr) on eigenvalues was too large:
     Diagonalizing with lowered threshold

     Davidson diagonalization with overlap

---- Real-time Memory Report at c_bands before calling an iterative solver
           328 MiB given to the printing process from OS
             0 MiB allocation reported by mallinfo(arena+hblkhd)
           400 MiB available memory on the node where the printing process lives
------------------
     ethr =  6.41E-08,  avg # of iterations =  1.0

     negative rho (up, down):  9.128E-02 0.000E+00

     total cpu time spent up to now is       46.6 secs

     total energy              =      -2.31335092 Ry
     estimated scf accuracy    <       0.00000138 Ry

     iteration #  2     ecut=    20.00 Ry     beta= 0.70
     Davidson diagonalization with overlap

---- Real-time Memory Report at c_bands before calling an iterative solver
           328 MiB given to the printing process from OS
             0 MiB allocation reported by mallinfo(arena+hblkhd)
           319 MiB available memory on the node where the printing process lives
------------------
     ethr =  6.89E-08,  avg # of iterations =  2.0

     negative rho (up, down):  9.124E-02 0.000E+00

     total cpu time spent up to now is       47.2 secs

     total energy              =      -2.31338148 Ry
     estimated scf accuracy    <       0.00000002 Ry

     iteration #  3     ecut=    20.00 Ry     beta= 0.70
     Davidson diagonalization with overlap

---- Real-time Memory Report at c_bands before calling an iterative solver
           328 MiB given to the printing process from OS
             0 MiB allocation reported by mallinfo(arena+hblkhd)
           309 MiB available memory on the node where the printing process lives
------------------
     ethr =  1.08E-09,  avg # of iterations =  3.0

     negative rho (up, down):  9.124E-02 0.000E+00

     total cpu time spent up to now is       47.8 secs

     total energy              =      -2.31338880 Ry
     estimated scf accuracy    <          3.4E-09 Ry

     iteration #  4     ecut=    20.00 Ry     beta= 0.70
     Davidson diagonalization with overlap

---- Real-time Memory Report at c_bands before calling an iterative solver
           328 MiB given to the printing process from OS
             0 MiB allocation reported by mallinfo(arena+hblkhd)
           299 MiB available memory on the node where the printing process lives
------------------
     ethr =  1.71E-10,  avg # of iterations =  4.0

     negative rho (up, down):  9.124E-02 0.000E+00

     total cpu time spent up to now is       48.5 secs

     total energy              =      -2.31338086 Ry
     estimated scf accuracy    <          5.8E-09 Ry

     iteration #  5     ecut=    20.00 Ry     beta= 0.70
     Davidson diagonalization with overlap

---- Real-time Memory Report at c_bands before calling an iterative solver
           328 MiB given to the printing process from OS
             0 MiB allocation reported by mallinfo(arena+hblkhd)
           289 MiB available memory on the node where the printing process lives
------------------
     ethr =  1.71E-10,  avg # of iterations =  3.0

     negative rho (up, down):  9.124E-02 0.000E+00

     total cpu time spent up to now is       49.2 secs

     total energy              =      -2.31338499 Ry
     estimated scf accuracy    <          1.1E-09 Ry

     iteration #  6     ecut=    20.00 Ry     beta= 0.70
     Davidson diagonalization with overlap

---- Real-time Memory Report at c_bands before calling an iterative solver
           328 MiB given to the printing process from OS
             0 MiB allocation reported by mallinfo(arena+hblkhd)
           280 MiB available memory on the node where the printing process lives
------------------
     ethr =  5.30E-11,  avg # of iterations =  3.0

     negative rho (up, down):  9.124E-02 0.000E+00

     total cpu time spent up to now is       49.7 secs

     End of self-consistent calculation

          k =-0.5000-0.5000-0.5000 ( 40800 PWs)   bands (ev):

   -10.4636  -1.3963

     occupation numbers 
     1.0000   0.0000

     highest occupied, lowest unoccupied level (ev):   -10.4636   -1.3963

!    total energy              =      -2.31338436 Ry
     estimated scf accuracy    <          1.1E-10 Ry

     The total energy is the sum of the following terms:
     one-electron contribution =      -4.18701882 Ry
     hartree contribution      =       2.23952951 Ry
     xc contribution           =      -1.38282285 Ry
     ewald contribution        =       1.01692779 Ry

     convergence has been achieved in   6 iterations

     Forces acting on atoms (cartesian axes, Ry/au):

     atom    1 type  1   force =     0.01199138    0.00000000    0.00000000
     atom    2 type  1   force =    -0.01199138    0.00000000    0.00000000
     The non-local contrib.  to forces
     atom    1 type  1   force =     0.09416064    0.00000000    0.00000000
     atom    2 type  1   force =    -0.09339592    0.00000000    0.00000000
     The ionic contribution  to forces
     atom    1 type  1   force =    -0.97244483   -0.00000000   -0.00000000
     atom    2 type  1   force =     0.97244483   -0.00000000   -0.00000000
     The local contribution  to forces
     atom    1 type  1   force =     0.89073696    0.00000000    0.00000000
     atom    2 type  1   force =    -0.89067818    0.00000000    0.00000000
     The core correction contribution to forces
     atom    1 type  1   force =     0.00000000    0.00000000    0.00000000
     atom    2 type  1   force =     0.00000000    0.00000000    0.00000000
     The Hubbard contrib.    to forces
     atom    1 type  1   force =     0.00000000    0.00000000    0.00000000
     atom    2 type  1   force =     0.00000000    0.00000000    0.00000000
     The SCF correction term to forces
     atom    1 type  1   force =    -0.00002525    0.00000000    0.00000000
     atom    2 type  1   force =     0.00007404   -0.00000000    0.00000000

     Total force =     0.016958     Total SCF correction =     0.000078
     Energy error            =      2.8E-07 Ry
     Gradient error          =      1.2E-02 Ry/Bohr

     number of scf cycles    =   6
     number of bfgs steps    =   2

     energy             old  =      -2.3133840862 Ry
     energy             new  =      -2.3133843630 Ry

     CASE: energy            _new > energy            _old

     new trust radius        =       0.0005859584 bohr
     new conv_thr            =       0.0000000004 Ry


ATOMIC_POSITIONS (angstrom)
H             0.0103333247        0.0000000000        0.0000000000
H             0.7696666753        0.0000000000        0.0000000000



     Writing config-only to output data dir ./.save/
     NEW-OLD atomic charge density approx. for the potential

     negative rho (up, down):  9.126E-02 0.000E+00

     total cpu time spent up to now is       50.4 secs

     Self-consistent Calculation

     iteration #  1     ecut=    20.00 Ry     beta= 0.70
     Davidson diagonalization with overlap

---- Real-time Memory Report at c_bands before calling an iterative solver
           328 MiB given to the printing process from OS
             0 MiB allocation reported by mallinfo(arena+hblkhd)
           417 MiB available memory on the node where the printing process lives
------------------
     ethr =  1.00E-06,  avg # of iterations =  2.0

     Threshold (ethr) on eigenvalues was too large:
     Diagonalizing with lowered threshold

     Davidson diagonalization with overlap

---- Real-time Memory Report at c_bands before calling an iterative solver
           328 MiB given to the printing process from OS
             0 MiB allocation reported by mallinfo(arena+hblkhd)
           400 MiB available memory on the node where the printing process lives
------------------
     ethr =  4.95E-09,  avg # of iterations =  1.0

     negative rho (up, down):  9.121E-02 0.000E+00

     total cpu time spent up to now is       51.2 secs

     total energy              =      -2.31338622 Ry
     estimated scf accuracy    <       0.00000011 Ry

     iteration #  2     ecut=    20.00 Ry     beta= 0.70
     Davidson diagonalization with overlap

---- Real-time Memory Report at c_bands before calling an iterative solver
           328 MiB given to the printing process from OS
             0 MiB allocation reported by mallinfo(arena+hblkhd)
           319 MiB available memory on the node where the printing process lives
------------------
     ethr =  5.74E-09,  avg # of iterations =  3.0

     negative rho (up, down):  9.121E-02 0.000E+00

     total cpu time spent up to now is       51.8 secs

     total energy              =      -2.31338967 Ry
     estimated scf accuracy    <          2.3E-09 Ry

     iteration #  3     ecut=    20.00 Ry     beta= 0.70
     Davidson diagonalization with overlap

---- Real-time Memory Report at c_bands before calling an iterative solver
           328 MiB given to the printing process from OS
             0 MiB allocation reported by mallinfo(arena+hblkhd)
           309 MiB available memory on the node where the printing process lives
------------------
     ethr =  1.15E-10,  avg # of iterations =  3.0

     negative rho (up, down):  9.121E-02 0.000E+00

     total cpu time spent up to now is       52.4 secs

     total energy              =      -2.31338167 Ry
     estimated scf accuracy    <          4.3E-10 Ry

     iteration #  4     ecut=    20.00 Ry     beta= 0.70
     Davidson diagonalization with overlap

---- Real-time Memory Report at c_bands before calling an iterative solver
           328 MiB given to the printing process from OS
             0 MiB allocation reported by mallinfo(arena+hblkhd)
           299 MiB available memory on the node where the printing process lives
------------------
     ethr =  2.14E-11,  avg # of iterations =  4.0

     negative rho (up, down):  9.121E-02 0.000E+00

     total cpu time spent up to now is       53.1 secs

     total energy              =      -2.31339083 Ry
     estimated scf accuracy    <          4.5E-09 Ry

     iteration #  5     ecut=    20.00 Ry     beta= 0.70
     Davidson diagonalization with overlap

---- Real-time Memory Report at c_bands before calling an iterative solver
           328 MiB given to the printing process from OS
             0 MiB allocation reported by mallinfo(arena+hblkhd)
           290 MiB available memory on the node where the printing process lives
------------------
     ethr =  2.14E-11,  avg # of iterations =  4.0

     negative rho (up, down):  9.121E-02 0.000E+00

     total cpu time spent up to now is       53.8 secs

     total energy              =      -2.31338767 Ry
     estimated scf accuracy    <          1.2E-09 Ry

     iteration #  6     ecut=    20.00 Ry     beta= 0.70
     Davidson diagonalization with overlap

---- Real-time Memory Report at c_bands before calling an iterative solver
           328 MiB given to the printing process from OS
             0 MiB allocation reported by mallinfo(arena+hblkhd)
           280 MiB available memory on the node where the printing process lives
------------------
     ethr =  2.14E-11,  avg # of iterations =  4.0

     negative rho (up, down):  9.121E-02 0.000E+00

     total cpu time spent up to now is       54.4 secs

     End of self-consistent calculation

          k =-0.5000-0.5000-0.5000 ( 40800 PWs)   bands (ev):

   -10.4606  -1.3969

     occupation numbers 
     1.0000   0.0000

     highest occupied, lowest unoccupied level (ev):   -10.4606   -1.3969

!    total energy              =      -2.31338467 Ry
     estimated scf accuracy    <          3.1E-10 Ry

     The total energy is the sum of the following terms:
     one-electron contribution =      -4.18547164 Ry
[...]
------------------
     ethr =  6.65E-12,  avg # of iterations =  2.0

     negative rho (up, down):  9.132E-02 0.000E+00

     total cpu time spent up to now is      127.9 secs

     total energy              =      -2.31336233 Ry
     estimated scf accuracy    <          3.3E-09 Ry

     iteration # 77     ecut=    20.00 Ry     beta= 0.70
     Davidson diagonalization with overlap

---- Real-time Memory Report at c_bands before calling an iterative solver
           328 MiB given to the printing process from OS
             0 MiB allocation reported by mallinfo(arena+hblkhd)
           240 MiB available memory on the node where the printing process lives
------------------
     ethr =  6.65E-12,  avg # of iterations =  3.0

     negative rho (up, down):  9.132E-02 0.000E+00

     total cpu time spent up to now is      128.6 secs

     total energy              =      -2.31336188 Ry
     estimated scf accuracy    <          3.3E-09 Ry

     iteration # 78     ecut=    20.00 Ry     beta= 0.70
     Davidson diagonalization with overlap

---- Real-time Memory Report at c_bands before calling an iterative solver
           328 MiB given to the printing process from OS
             0 MiB allocation reported by mallinfo(arena+hblkhd)
           240 MiB available memory on the node where the printing process lives
------------------
     ethr =  6.65E-12,  avg # of iterations =  2.0

     negative rho (up, down):  9.135E-02 0.000E+00

     total cpu time spent up to now is      129.3 secs

     total energy              =      -2.31336097 Ry
     estimated scf accuracy    <          3.3E-09 Ry

     iteration # 79     ecut=    20.00 Ry     beta= 0.70
     Davidson diagonalization with overlap

---- Real-time Memory Report at c_bands before calling an iterative solver
           328 MiB given to the printing process from OS
             0 MiB allocation reported by mallinfo(arena+hblkhd)
           240 MiB available memory on the node where the printing process lives
------------------
     ethr =  6.65E-12,  avg # of iterations =  5.0

     negative rho (up, down):  9.128E-02 0.000E+00

     total cpu time spent up to now is      130.0 secs

     total energy              =      -2.31339819 Ry
     estimated scf accuracy    <       0.00000001 Ry

     iteration # 80     ecut=    20.00 Ry     beta= 0.70
     Davidson diagonalization with overlap

---- Real-time Memory Report at c_bands before calling an iterative solver
           328 MiB given to the printing process from OS
             0 MiB allocation reported by mallinfo(arena+hblkhd)
           240 MiB available memory on the node where the printing process lives
------------------
     ethr =  6.65E-12,  avg # of iterations =  5.0

     negative rho (up, down):  9.130E-02 0.000E+00

     total cpu time spent up to now is      130.8 secs

     total energy              =      -2.31337937 Ry
     estimated scf accuracy    <       0.00000008 Ry

     iteration # 81     ecut=    20.00 Ry     beta= 0.70
     Davidson diagonalization with overlap

---- Real-time Memory Report at c_bands before calling an iterative solver
           328 MiB given to the printing process from OS
             0 MiB allocation reported by mallinfo(arena+hblkhd)
           240 MiB available memory on the node where the printing process lives
------------------
     ethr =  6.65E-12,  avg # of iterations =  5.0

     negative rho (up, down):  9.132E-02 0.000E+00

     total cpu time spent up to now is      131.5 secs

     total energy              =      -2.31337122 Ry
     estimated scf accuracy    <       0.00000002 Ry

     iteration # 82     ecut=    20.00 Ry     beta= 0.70
     Davidson diagonalization with overlap

---- Real-time Memory Report at c_bands before calling an iterative solver
           328 MiB given to the printing process from OS
             0 MiB allocation reported by mallinfo(arena+hblkhd)
           240 MiB available memory on the node where the printing process lives
------------------
     ethr =  6.65E-12,  avg # of iterations =  5.0

     negative rho (up, down):  9.130E-02 0.000E+00

     total cpu time spent up to now is      132.2 secs

     total energy              =      -2.31337987 Ry
     estimated scf accuracy    <          3.7E-10 Ry

     iteration # 83     ecut=    20.00 Ry     beta= 0.70
     Davidson diagonalization with overlap

---- Real-time Memory Report at c_bands before calling an iterative solver
           328 MiB given to the printing process from OS
             0 MiB allocation reported by mallinfo(arena+hblkhd)
           240 MiB available memory on the node where the printing process lives
------------------
     ethr =  6.65E-12,  avg # of iterations =  5.0

     negative rho (up, down):  9.132E-02 0.000E+00

     total cpu time spent up to now is      133.0 secs

     total energy              =      -2.31337351 Ry
     estimated scf accuracy    <       0.00000001 Ry

     iteration # 84     ecut=    20.00 Ry     beta= 0.70
     Davidson diagonalization with overlap

---- Real-time Memory Report at c_bands before calling an iterative solver
           328 MiB given to the printing process from OS
             0 MiB allocation reported by mallinfo(arena+hblkhd)
           240 MiB available memory on the node where the printing process lives
------------------
     ethr =  6.65E-12,  avg # of iterations =  4.0

     negative rho (up, down):  9.132E-02 0.000E+00

     total cpu time spent up to now is      133.7 secs

     total energy              =      -2.31337358 Ry
     estimated scf accuracy    <          2.9E-09 Ry

     iteration # 85     ecut=    20.00 Ry     beta= 0.70
     Davidson diagonalization with overlap

---- Real-time Memory Report at c_bands before calling an iterative solver
           328 MiB given to the printing process from OS
             0 MiB allocation reported by mallinfo(arena+hblkhd)
           240 MiB available memory on the node where the printing process lives
------------------
     ethr =  6.65E-12,  avg # of iterations =  3.0

     negative rho (up, down):  9.132E-02 0.000E+00

     total cpu time spent up to now is      134.4 secs

     total energy              =      -2.31337357 Ry
     estimated scf accuracy    <          2.2E-09 Ry

     iteration # 86     ecut=    20.00 Ry     beta= 0.70
     Davidson diagonalization with overlap

---- Real-time Memory Report at c_bands before calling an iterative solver
           328 MiB given to the printing process from OS
             0 MiB allocation reported by mallinfo(arena+hblkhd)
           240 MiB available memory on the node where the printing process lives
------------------
     ethr =  6.65E-12,  avg # of iterations =  1.0

     negative rho (up, down):  9.132E-02 0.000E+00

     total cpu time spent up to now is      135.0 secs

     total energy              =      -2.31337354 Ry
     estimated scf accuracy    <          2.2E-09 Ry

     iteration # 87     ecut=    20.00 Ry     beta= 0.70
     Davidson diagonalization with overlap

---- Real-time Memory Report at c_bands before calling an iterative solver
           328 MiB given to the printing process from OS
             0 MiB allocation reported by mallinfo(arena+hblkhd)
           240 MiB available memory on the node where the printing process lives
------------------
     ethr =  6.65E-12,  avg # of iterations =  2.0

     negative rho (up, down):  9.132E-02 0.000E+00

     total cpu time spent up to now is      135.6 secs

     total energy              =      -2.31336377 Ry
     estimated scf accuracy    <          2.1E-09 Ry

     iteration # 88     ecut=    20.00 Ry     beta= 0.70
     Davidson diagonalization with overlap

---- Real-time Memory Report at c_bands before calling an iterative solver
           328 MiB given to the printing process from OS
             0 MiB allocation reported by mallinfo(arena+hblkhd)
           240 MiB available memory on the node where the printing process lives
------------------
     ethr =  6.65E-12,  avg # of iterations =  5.0

     negative rho (up, down):  9.132E-02 0.000E+00

     total cpu time spent up to now is      136.4 secs

     total energy              =      -2.31336440 Ry
     estimated scf accuracy    <          2.5E-09 Ry

     iteration # 89     ecut=    20.00 Ry     beta= 0.70
     Davidson diagonalization with overlap

---- Real-time Memory Report at c_bands before calling an iterative solver
           328 MiB given to the printing process from OS
             0 MiB allocation reported by mallinfo(arena+hblkhd)
           240 MiB available memory on the node where the printing process lives
------------------
     ethr =  6.65E-12,  avg # of iterations =  3.0

     negative rho (up, down):  9.132E-02 0.000E+00

     total cpu time spent up to now is      137.0 secs

     total energy              =      -2.31336460 Ry
     estimated scf accuracy    <          2.1E-09 Ry

     iteration # 90     ecut=    20.00 Ry     beta= 0.70
     Davidson diagonalization with overlap

---- Real-time Memory Report at c_bands before calling an iterative solver
           328 MiB given to the printing process from OS
             0 MiB allocation reported by mallinfo(arena+hblkhd)
           240 MiB available memory on the node where the printing process lives
------------------
     ethr =  6.65E-12,  avg # of iterations =  2.0

     negative rho (up, down):  9.132E-02 0.000E+00

     total cpu time spent up to now is      137.7 secs

     total energy              =      -2.31336462 Ry
     estimated scf accuracy    <          1.8E-09 Ry

     iteration # 91     ecut=    20.00 Ry     beta= 0.70
     Davidson diagonalization with overlap

---- Real-time Memory Report at c_bands before calling an iterative solver
           328 MiB given to the printing process from OS
             0 MiB allocation reported by mallinfo(arena+hblkhd)
           240 MiB available memory on the node where the printing process lives
------------------
     ethr =  6.65E-12,  avg # of iterations =  1.0

     negative rho (up, down):  9.132E-02 0.000E+00

     total cpu time spent up to now is      138.3 secs

     total energy              =      -2.31336146 Ry
     estimated scf accuracy    <          1.8E-09 Ry

     iteration # 92     ecut=    20.00 Ry     beta= 0.70
     Davidson diagonalization with overlap

---- Real-time Memory Report at c_bands before calling an iterative solver
           328 MiB given to the printing process from OS
             0 MiB allocation reported by mallinfo(arena+hblkhd)
           240 MiB available memory on the node where the printing process lives
------------------
     ethr =  6.65E-12,  avg # of iterations =  4.0

     negative rho (up, down):  9.132E-02 0.000E+00

     total cpu time spent up to now is      139.0 secs

     total energy              =      -2.31336244 Ry
     estimated scf accuracy    <          3.6E-09 Ry

     iteration # 93     ecut=    20.00 Ry     beta= 0.70
     Davidson diagonalization with overlap

---- Real-time Memory Report at c_bands before calling an iterative solver
           328 MiB given to the printing process from OS
             0 MiB allocation reported by mallinfo(arena+hblkhd)
           240 MiB available memory on the node where the printing process lives
------------------
     ethr =  6.65E-12,  avg # of iterations =  3.0

     negative rho (up, down):  9.132E-02 0.000E+00

     total cpu time spent up to now is      139.7 secs

     total energy              =      -2.31336251 Ry
     estimated scf accuracy    <          3.2E-09 Ry

     iteration # 94     ecut=    20.00 Ry     beta= 0.70
     Davidson diagonalization with overlap

---- Real-time Memory Report at c_bands before calling an iterative solver
           328 MiB given to the printing process from OS
             0 MiB allocation reported by mallinfo(arena+hblkhd)
           240 MiB available memory on the node where the printing process lives
------------------
     ethr =  6.65E-12,  avg # of iterations =  2.0

     negative rho (up, down):  9.132E-02 0.000E+00

     total cpu time spent up to now is      140.3 secs

     total energy              =      -2.31336251 Ry
     estimated scf accuracy    <          3.2E-09 Ry

     iteration # 95     ecut=    20.00 Ry     beta= 0.70
     Davidson diagonalization with overlap

---- Real-time Memory Report at c_bands before calling an iterative solver
           328 MiB given to the printing process from OS
             0 MiB allocation reported by mallinfo(arena+hblkhd)
           240 MiB available memory on the node where the printing process lives
------------------
     ethr =  6.65E-12,  avg # of iterations =  1.0

     negative rho (up, down):  9.132E-02 0.000E+00

     total cpu time spent up to now is      141.0 secs

     total energy              =      -2.31336251 Ry
     estimated scf accuracy    <          3.2E-09 Ry

     iteration # 96     ecut=    20.00 Ry     beta= 0.70
     Davidson diagonalization with overlap

---- Real-time Memory Report at c_bands before calling an iterative solver
           328 MiB given to the printing process from OS
             0 MiB allocation reported by mallinfo(arena+hblkhd)
           240 MiB available memory on the node where the printing process lives
------------------
     ethr =  6.65E-12,  avg # of iterations =  1.0

     negative rho (up, down):  9.138E-02 0.000E+00

     total cpu time spent up to now is      141.6 secs

     total energy              =      -2.31332695 Ry
     estimated scf accuracy    <          3.2E-09 Ry

     iteration # 97     ecut=    20.00 Ry     beta= 0.70
     Davidson diagonalization with overlap

---- Real-time Memory Report at c_bands before calling an iterative solver
           328 MiB given to the printing process from OS
             0 MiB allocation reported by mallinfo(arena+hblkhd)
           240 MiB available memory on the node where the printing process lives
------------------
     ethr =  6.65E-12,  avg # of iterations =  5.0

     negative rho (up, down):  9.136E-02 0.000E+00

     total cpu time spent up to now is      142.3 secs

     total energy              =      -2.31333759 Ry
     estimated scf accuracy    <       0.00000002 Ry

     iteration # 98     ecut=    20.00 Ry     beta= 0.70
     Davidson diagonalization with overlap

---- Real-time Memory Report at c_bands before calling an iterative solver
           328 MiB given to the printing process from OS
             0 MiB allocation reported by mallinfo(arena+hblkhd)
           240 MiB available memory on the node where the printing process lives
------------------
     ethr =  6.65E-12,  avg # of iterations =  5.0

     negative rho (up, down):  9.131E-02 0.000E+00

     total cpu time spent up to now is      143.0 secs

     total energy              =      -2.31337511 Ry
     estimated scf accuracy    <       0.00000002 Ry

     iteration # 99     ecut=    20.00 Ry     beta= 0.70
     Davidson diagonalization with overlap

---- Real-time Memory Report at c_bands before calling an iterative solver
           328 MiB given to the printing process from OS
             0 MiB allocation reported by mallinfo(arena+hblkhd)
           240 MiB available memory on the node where the printing process lives
------------------
     ethr =  6.65E-12,  avg # of iterations =  4.0

     negative rho (up, down):  9.132E-02 0.000E+00

     total cpu time spent up to now is      143.7 secs

     total energy              =      -2.31337349 Ry
     estimated scf accuracy    <          4.1E-09 Ry

     iteration #100     ecut=    20.00 Ry     beta= 0.70
     Davidson diagonalization with overlap

---- Real-time Memory Report at c_bands before calling an iterative solver
           328 MiB given to the printing process from OS
             0 MiB allocation reported by mallinfo(arena+hblkhd)
           240 MiB available memory on the node where the printing process lives
------------------
     ethr =  6.65E-12,  avg # of iterations =  4.0

     negative rho (up, down):  9.131E-02 0.000E+00

     total cpu time spent up to now is      144.4 secs

     total energy              =      -2.31337392 Ry
     estimated scf accuracy    <          2.4E-09 Ry

     End of self-consistent calculation

     convergence NOT achieved after 100 iterations: stopping

     Writing config to output data dir ./.save/
     Message from routine punch:
     wavefunctions written to file

     init_run     :      0.60s CPU      0.62s WALL (       1 calls)
     electrons    :    138.65s CPU    139.01s WALL (       9 calls)
     update_pot   :      3.22s CPU      3.28s WALL (       8 calls)
     forces       :      1.12s CPU      1.15s WALL (       8 calls)

     Called by init_run:
     wfcinit      :      0.05s CPU      0.05s WALL (       1 calls)
     wfcinit:atom :      0.00s CPU      0.00s WALL (       1 calls)
     wfcinit:wfcr :      0.05s CPU      0.05s WALL (       1 calls)
     potinit      :      0.37s CPU      0.38s WALL (       1 calls)
     hinit0       :      0.03s CPU      0.03s WALL (       1 calls)

     Called by electrons:
     c_bands      :     30.52s CPU     30.55s WALL (     210 calls)
     sum_band     :     16.32s CPU     16.35s WALL (     210 calls)
     v_of_rho     :     73.22s CPU     73.40s WALL (     215 calls)
     v_h          :      4.19s CPU      4.20s WALL (     215 calls)
     v_xc         :     69.03s CPU     69.20s WALL (     215 calls)
     newd         :      5.26s CPU      5.26s WALL (     215 calls)
     mix_rho      :     14.98s CPU     15.07s WALL (     210 calls)

     Called by c_bands:
     init_us_2    :      0.46s CPU      0.46s WALL (     421 calls)
     init_us_2:cp :      0.46s CPU      0.46s WALL (     421 calls)
     cegterg      :     30.20s CPU     30.23s WALL (     210 calls)

     Called by sum_band:
     sum_band:wei :      0.00s CPU      0.00s WALL (     210 calls)
     sum_band:loo :      4.95s CPU      4.96s WALL (     210 calls)
     sum_band:buf :      0.00s CPU      0.00s WALL (     210 calls)
     sum_band:ini :      0.24s CPU      0.24s WALL (     210 calls)
     sum_band:cal :      0.06s CPU      0.06s WALL (     210 calls)
     sum_band:bec :      0.00s CPU      0.00s WALL (     210 calls)
     addusdens    :      1.37s CPU      1.39s WALL (     210 calls)
     addusd:skk   :      0.40s CPU      0.41s WALL (     210 calls)
     addusd:dgemm :      0.29s CPU      0.30s WALL (     210 calls)
     addusd:qvan2 :      0.36s CPU      0.37s WALL (     210 calls)

     Called by *egterg:
     cdiaghg      :      0.02s CPU      0.02s WALL (     845 calls)
     cegterg:over :      0.35s CPU      0.35s WALL (     647 calls)
     cegterg:upda :      0.27s CPU      0.27s WALL (     647 calls)
     cegterg:last :      0.54s CPU      0.54s WALL (     498 calls)
     h_psi        :     28.46s CPU     28.48s WALL (     858 calls)
     s_psi        :      0.15s CPU      0.15s WALL (     858 calls)
     g_psi        :      0.12s CPU      0.12s WALL (     647 calls)

     Called by h_psi:
     h_psi:calbec :      0.20s CPU      0.20s WALL (     858 calls)
     vloc_psi     :     28.01s CPU     28.04s WALL (     858 calls)
     add_vuspsi   :      0.16s CPU      0.16s WALL (     858 calls)

     General routines
     calbec       :      0.27s CPU      0.27s WALL (    1100 calls)
     fft          :     36.76s CPU     36.79s WALL (    2393 calls)
     ffts         :      3.32s CPU      3.32s WALL (     210 calls)
     fftw         :     29.15s CPU     29.18s WALL (    3004 calls)
     davcio       :      0.01s CPU      0.02s WALL (      19 calls)


     PWSCF        :   2m24.06s CPU   2m24.53s WALL


   This run was terminated on:   3:22:30  28Feb2022            

=------------------------------------------------------------------------------=
   JOB DONE.
=------------------------------------------------------------------------------=
