
     Program PWSCF v.7.0 starts on 28Feb2022 at 22:14:24 

     This program is part of the open-source Quantum ESPRESSO suite
     for quantum simulation of materials; please cite
         "P. Giannozzi et al., J. Phys.:Condens. Matter 21 395502 (2009);
         "P. Giannozzi et al., J. Phys.:Condens. Matter 29 465901 (2017);
         "P. Giannozzi et al., J. Chem. Phys. 152 154105 (2020);
          URL http://www.quantum-espresso.org", 
     in publications or presentations arising from this work. More details at
     http://www.quantum-espresso.org/quote

     Serial version
     1308 MiB available memory on the printing compute node when the environment starts

     Waiting for input...
     Reading input from standard input

     Current dimensions of program PWSCF are:
     Max number of different atomic species (ntypx) = 10
     Max number of k-points (npk) =  40000
     Max angular momentum in pseudopotentials (lmaxx) =  4

    ============================================================
    |  pseudopotential report for atomic species:  1           |
    |        pseudo potential version   7   3   2              |
    ------------------------------------------------------------
    |  hydrogen            PBE                  exchange-corr  |
    |  z =   1.    zv( 1) =   1.    exfact =   5.00000         |
    |  ifpcor =  0           atomic energy =  -0.91772 Ry      |
    |  index    orbital      occupation    energy              |
    |    1        100           1.00       -0.48               |
    |  rinner =  0.5000                                        |
    |    new generation scheme:                                |
    |    nbeta =  1     kkbeta =  271     rcloc =    0.6000    |
    |    ibeta    l     epsilon   rcut                         |
    |      1       0      -0.48   0.80                         |
    ============================================================

     IMPORTANT: XC functional enforced from input :
     Exchange-correlation= BLYP
                           (   1   3   1   3   0   0   0)
     Any further DFT definition will be discarded
     Please, verify this is what you really want


     G-vector sticks info
     --------------------
     sticks:   dense  smooth     PW     G-vecs:    dense   smooth      PW
     Sum        1433    1433    421                40651    40651    6451

     Using Slab Decomposition



     bravais-lattice index     =            1
     lattice parameter (alat)  =      30.0000  a.u.
     unit-cell volume          =   27000.0000 (a.u.)^3
     number of atoms/cell      =            2
     number of atomic types    =            1
     number of electrons       =         2.00
     number of Kohn-Sham states=            2
     kinetic-energy cutoff     =       5.0000  Ry
     charge density cutoff     =      20.0000  Ry
     scf convergence threshold =      1.0E-08
     mixing beta               =       0.7000
     number of iterations used =            8  plain     mixing
     Exchange-correlation= BLYP
                           (   1   3   1   3   0   0   0)

     celldm(1)=  30.000000  celldm(2)=   0.000000  celldm(3)=   0.000000
     celldm(4)=   0.000000  celldm(5)=   0.000000  celldm(6)=   0.000000

     crystal axes: (cart. coord. in units of alat)
               a(1) = (   1.000000   0.000000   0.000000 )  
               a(2) = (   0.000000   1.000000   0.000000 )  
               a(3) = (   0.000000   0.000000   1.000000 )  

     reciprocal axes: (cart. coord. in units 2 pi/alat)
               b(1) = (  1.000000  0.000000  0.000000 )  
               b(2) = (  0.000000  1.000000  0.000000 )  
               b(3) = (  0.000000  0.000000  1.000000 )  


     PseudoPot. # 1 for hy read from file:
     /root/q-e/pseudo/H_US.van
     MD5 check sum: a9a9bfe98ff56cf4de197d71fc46bb44
     Pseudo is Ultrasoft, Zval =  1.0
     Generated by Vanderbilt code, v. 7.3.2
     Using radial grid of  399 points,  1 beta functions with: 
                l(1) =   0
     Q(r) pseudized with  8 coefficients,  rinner =    0.500

     atomic species   valence    mass     pseudopotential
        H              1.00     1.00784     hy( 1.00)

      8 Sym. Ops. (no inversion) found


                                    s                        frac. trans.

      isym =  1     identity                                     

 cryst.   s( 1) = (     1          0          0      )
                  (     0          1          0      )
                  (     0          0          1      )

 cart.    s( 1) = (  1.0000000  0.0000000  0.0000000 )
                  (  0.0000000  1.0000000  0.0000000 )
                  (  0.0000000  0.0000000  1.0000000 )


      isym =  2     180 deg rotation - cart. axis [1,0,0]        

 cryst.   s( 2) = (     1          0          0      )
                  (     0         -1          0      )
                  (     0          0         -1      )

 cart.    s( 2) = (  1.0000000  0.0000000  0.0000000 )
                  (  0.0000000 -1.0000000  0.0000000 )
                  (  0.0000000  0.0000000 -1.0000000 )


      isym =  3      90 deg rotation - cart. axis [-1,0,0]       

 cryst.   s( 3) = (     1          0          0      )
                  (     0          0         -1      )
                  (     0          1          0      )

 cart.    s( 3) = (  1.0000000  0.0000000  0.0000000 )
                  (  0.0000000  0.0000000  1.0000000 )
                  (  0.0000000 -1.0000000  0.0000000 )


      isym =  4      90 deg rotation - cart. axis [1,0,0]        

 cryst.   s( 4) = (     1          0          0      )
                  (     0          0          1      )
                  (     0         -1          0      )

 cart.    s( 4) = (  1.0000000  0.0000000  0.0000000 )
                  (  0.0000000  0.0000000 -1.0000000 )
                  (  0.0000000  1.0000000  0.0000000 )


      isym =  5     inv. 180 deg rotation - cart. axis [0,0,1]   

 cryst.   s( 5) = (     1          0          0      )
                  (     0          1          0      )
                  (     0          0         -1      )

 cart.    s( 5) = (  1.0000000  0.0000000  0.0000000 )
                  (  0.0000000  1.0000000  0.0000000 )
                  (  0.0000000  0.0000000 -1.0000000 )


      isym =  6     inv. 180 deg rotation - cart. axis [0,1,0]   

 cryst.   s( 6) = (     1          0          0      )
                  (     0         -1          0      )
                  (     0          0          1      )

 cart.    s( 6) = (  1.0000000  0.0000000  0.0000000 )
                  (  0.0000000 -1.0000000  0.0000000 )
                  (  0.0000000  0.0000000  1.0000000 )


      isym =  7     inv. 180 deg rotation - cart. axis [0,1,1]   

 cryst.   s( 7) = (     1          0          0      )
                  (     0          0         -1      )
                  (     0         -1          0      )

 cart.    s( 7) = (  1.0000000  0.0000000  0.0000000 )
                  (  0.0000000  0.0000000 -1.0000000 )
                  (  0.0000000 -1.0000000  0.0000000 )


      isym =  8     inv. 180 deg rotation - cart. axis [0,1,-1]  

 cryst.   s( 8) = (     1          0          0      )
                  (     0          0          1      )
                  (     0          1          0      )

 cart.    s( 8) = (  1.0000000  0.0000000  0.0000000 )
                  (  0.0000000  0.0000000  1.0000000 )
                  (  0.0000000  1.0000000  0.0000000 )


     point group C_4v (4mm) 
     there are  5 classes
     the character table:

       E     2C4   C2    2s_v  2s_d 
A_1    1.00  1.00  1.00  1.00  1.00
A_2    1.00  1.00  1.00 -1.00 -1.00
B_1    1.00 -1.00  1.00  1.00 -1.00
B_2    1.00 -1.00  1.00 -1.00  1.00
E      2.00  0.00 -2.00  0.00  0.00

     the symmetry operations in each class and the name of the first element:

     E        1
          identity                                               
     2C4      3    4
           90 deg rotation - cart. axis [-1,0,0]                 
     C2       2
          180 deg rotation - cart. axis [1,0,0]                  
     2s_v     5    6
          inv. 180 deg rotation - cart. axis [0,0,1]             
     2s_d     7    8
          inv. 180 deg rotation - cart. axis [0,1,1]             

   Cartesian axes

     site n.     atom                  positions (alat units)
         1           H   tau(   1) = (   0.0000000   0.0000000   0.0000000  )
         2           H   tau(   2) = (   0.0503927   0.0000000   0.0000000  )

   Crystallographic axes

     site n.     atom                  positions (cryst. coord.)
         1           H   tau(   1) = (  0.0000000  0.0000000  0.0000000  )
         2           H   tau(   2) = (  0.0503927  0.0000000  0.0000000  )

     number of k points=     1
                       cart. coord. in units 2pi/alat
        k(    1) = (  -0.5000000  -0.5000000  -0.5000000), wk =   2.0000000

                       cryst. coord.
        k(    1) = (  -0.5000000  -0.5000000  -0.5000000), wk =   2.0000000

     Dense  grid:    40651 G-vectors     FFT dimensions: (  45,  45,  45)

     Dynamical RAM for                 wfc:       0.16 MB

     Dynamical RAM for     wfc (w. buffer):       0.16 MB

     Dynamical RAM for           str. fact:       0.62 MB

     Dynamical RAM for           local pot:       0.00 MB

     Dynamical RAM for          nlocal pot:       0.16 MB

     Dynamical RAM for                qrad:       0.00 MB

     Dynamical RAM for          rho,v,vnew:       3.95 MB

     Dynamical RAM for               rhoin:       1.32 MB

     Dynamical RAM for            rho*nmix:       9.92 MB

     Dynamical RAM for           G-vectors:       2.64 MB

     Dynamical RAM for          h,s,v(r/c):       0.00 MB

     Dynamical RAM for          <psi|beta>:       0.00 MB

     Dynamical RAM for                 psi:       0.31 MB

     Dynamical RAM for                hpsi:       0.31 MB

     Dynamical RAM for                spsi:       0.31 MB

     Dynamical RAM for      wfcinit/wfcrot:       0.31 MB

     Dynamical RAM for           addusdens:       3.72 MB

     Estimated static dynamical RAM per process >      13.55 MB

     Estimated max dynamical RAM per process >      27.20 MB

     Initial potential from superposition of free atoms

     starting charge       2.0000, renormalised to       2.0000

     negative rho (up, down):  5.397E-01 0.000E+00
     Starting wfcs are    2 randomized atomic wfcs

     total cpu time spent up to now is        0.1 secs

     Self-consistent Calculation

     iteration #  1     ecut=     5.00 Ry     beta= 0.70
     Davidson diagonalization with overlap

---- Real-time Memory Report at c_bands before calling an iterative solver
            38 MiB given to the printing process from OS
             0 MiB allocation reported by mallinfo(arena+hblkhd)
          1290 MiB available memory on the node where the printing process lives
------------------
     ethr =  1.00E-02,  avg # of iterations =  5.0

     negative rho (up, down):  4.345E-01 0.000E+00

     total cpu time spent up to now is        0.2 secs

     total energy              =      -2.04419065 Ry
     estimated scf accuracy    <       0.03584290 Ry

     iteration #  2     ecut=     5.00 Ry     beta= 0.70
     Davidson diagonalization with overlap

---- Real-time Memory Report at c_bands before calling an iterative solver
            44 MiB given to the printing process from OS
             0 MiB allocation reported by mallinfo(arena+hblkhd)
          1277 MiB available memory on the node where the printing process lives
------------------
     ethr =  1.79E-03,  avg # of iterations =  2.0

     negative rho (up, down):  3.880E-01 0.000E+00

     total cpu time spent up to now is        0.2 secs

     total energy              =      -2.06208489 Ry
     estimated scf accuracy    <       0.00177955 Ry

     iteration #  3     ecut=     5.00 Ry     beta= 0.70
     Davidson diagonalization with overlap

---- Real-time Memory Report at c_bands before calling an iterative solver
            46 MiB given to the printing process from OS
             0 MiB allocation reported by mallinfo(arena+hblkhd)
          1276 MiB available memory on the node where the printing process lives
------------------
     ethr =  8.90E-05,  avg # of iterations =  7.0

     negative rho (up, down):  3.745E-01 0.000E+00

     total cpu time spent up to now is        0.3 secs

     total energy              =      -2.06697178 Ry
     estimated scf accuracy    <       0.00021311 Ry

     iteration #  4     ecut=     5.00 Ry     beta= 0.70
     Davidson diagonalization with overlap

---- Real-time Memory Report at c_bands before calling an iterative solver
            47 MiB given to the printing process from OS
             0 MiB allocation reported by mallinfo(arena+hblkhd)
          1275 MiB available memory on the node where the printing process lives
------------------
     ethr =  1.07E-05,  avg # of iterations =  6.0

     negative rho (up, down):  3.739E-01 0.000E+00

     total cpu time spent up to now is        0.4 secs

     total energy              =      -2.06782988 Ry
     estimated scf accuracy    <       0.00029816 Ry

     iteration #  5     ecut=     5.00 Ry     beta= 0.70
     Davidson diagonalization with overlap

---- Real-time Memory Report at c_bands before calling an iterative solver
            48 MiB given to the printing process from OS
             0 MiB allocation reported by mallinfo(arena+hblkhd)
          1273 MiB available memory on the node where the printing process lives
------------------
     ethr =  1.07E-05,  avg # of iterations =  2.0

     negative rho (up, down):  3.738E-01 0.000E+00

     total cpu time spent up to now is        0.5 secs

     total energy              =      -2.06753316 Ry
     estimated scf accuracy    <       0.00006299 Ry

     iteration #  6     ecut=     5.00 Ry     beta= 0.70
     Davidson diagonalization with overlap

---- Real-time Memory Report at c_bands before calling an iterative solver
            49 MiB given to the printing process from OS
             0 MiB allocation reported by mallinfo(arena+hblkhd)
          1272 MiB available memory on the node where the printing process lives
------------------
     ethr =  3.15E-06,  avg # of iterations =  3.0

     negative rho (up, down):  3.764E-01 0.000E+00

     total cpu time spent up to now is        0.6 secs

     total energy              =      -2.06727747 Ry
     estimated scf accuracy    <       0.00009149 Ry

     iteration #  7     ecut=     5.00 Ry     beta= 0.70
     Davidson diagonalization with overlap

---- Real-time Memory Report at c_bands before calling an iterative solver
            51 MiB given to the printing process from OS
             0 MiB allocation reported by mallinfo(arena+hblkhd)
          1271 MiB available memory on the node where the printing process lives
------------------
     ethr =  3.15E-06,  avg # of iterations = 12.0

     negative rho (up, down):  3.766E-01 0.000E+00

     total cpu time spent up to now is        0.7 secs

     total energy              =      -2.06728757 Ry
     estimated scf accuracy    <       0.00000385 Ry

     iteration #  8     ecut=     5.00 Ry     beta= 0.70
     Davidson diagonalization with overlap

---- Real-time Memory Report at c_bands before calling an iterative solver
            52 MiB given to the printing process from OS
             0 MiB allocation reported by mallinfo(arena+hblkhd)
          1270 MiB available memory on the node where the printing process lives
------------------
     ethr =  1.92E-07,  avg # of iterations =  7.0

     negative rho (up, down):  3.767E-01 0.000E+00

     total cpu time spent up to now is        0.7 secs

     total energy              =      -2.06710142 Ry
     estimated scf accuracy    <       0.00002234 Ry

     iteration #  9     ecut=     5.00 Ry     beta= 0.70
     Davidson diagonalization with overlap

---- Real-time Memory Report at c_bands before calling an iterative solver
            53 MiB given to the printing process from OS
             0 MiB allocation reported by mallinfo(arena+hblkhd)
          1268 MiB available memory on the node where the printing process lives
------------------
     ethr =  1.92E-07,  avg # of iterations =  6.0

     negative rho (up, down):  3.754E-01 0.000E+00

     total cpu time spent up to now is        0.8 secs

     total energy              =      -2.06753808 Ry
     estimated scf accuracy    <       0.00003001 Ry

     iteration # 10     ecut=     5.00 Ry     beta= 0.70
     Davidson diagonalization with overlap

---- Real-time Memory Report at c_bands before calling an iterative solver
            54 MiB given to the printing process from OS
             0 MiB allocation reported by mallinfo(arena+hblkhd)
          1267 MiB available memory on the node where the printing process lives
------------------
     ethr =  1.92E-07,  avg # of iterations =  3.0

     negative rho (up, down):  3.754E-01 0.000E+00

     total cpu time spent up to now is        0.9 secs

     total energy              =      -2.06755895 Ry
     estimated scf accuracy    <       0.00004551 Ry

     iteration # 11     ecut=     5.00 Ry     beta= 0.70
     Davidson diagonalization with overlap

---- Real-time Memory Report at c_bands before calling an iterative solver
            54 MiB given to the printing process from OS
             0 MiB allocation reported by mallinfo(arena+hblkhd)
          1267 MiB available memory on the node where the printing process lives
------------------
     ethr =  1.92E-07,  avg # of iterations =  3.0

     negative rho (up, down):  3.774E-01 0.000E+00

     total cpu time spent up to now is        1.0 secs

     total energy              =      -2.06668720 Ry
     estimated scf accuracy    <       0.00003315 Ry

     iteration # 12     ecut=     5.00 Ry     beta= 0.70
     Davidson diagonalization with overlap

---- Real-time Memory Report at c_bands before calling an iterative solver
            54 MiB given to the printing process from OS
             0 MiB allocation reported by mallinfo(arena+hblkhd)
          1267 MiB available memory on the node where the printing process lives
------------------
     ethr =  1.92E-07,  avg # of iterations =  7.0

     negative rho (up, down):  3.756E-01 0.000E+00

     total cpu time spent up to now is        1.1 secs

     total energy              =      -2.06666473 Ry
     estimated scf accuracy    <       0.00004633 Ry

     iteration # 13     ecut=     5.00 Ry     beta= 0.70
     Davidson diagonalization with overlap

---- Real-time Memory Report at c_bands before calling an iterative solver
            54 MiB given to the printing process from OS
             0 MiB allocation reported by mallinfo(arena+hblkhd)
          1267 MiB available memory on the node where the printing process lives
------------------
     ethr =  1.92E-07,  avg # of iterations =  7.0

     negative rho (up, down):  3.679E-01 0.000E+00

     total cpu time spent up to now is        1.2 secs

     total energy              =      -2.07037537 Ry
     estimated scf accuracy    <       0.00002709 Ry

     iteration # 14     ecut=     5.00 Ry     beta= 0.70
     Davidson diagonalization with overlap

---- Real-time Memory Report at c_bands before calling an iterative solver
            54 MiB given to the printing process from OS
             0 MiB allocation reported by mallinfo(arena+hblkhd)
          1267 MiB available memory on the node where the printing process lives
------------------
     ethr =  1.92E-07,  avg # of iterations = 16.0

     negative rho (up, down):  3.743E-01 0.000E+00

     total cpu time spent up to now is        1.3 secs

     total energy              =      -2.06708969 Ry
     estimated scf accuracy    <       0.00082575 Ry

     iteration # 15     ecut=     5.00 Ry     beta= 0.70
     Davidson diagonalization with overlap

---- Real-time Memory Report at c_bands before calling an iterative solver
            54 MiB given to the printing process from OS
             0 MiB allocation reported by mallinfo(arena+hblkhd)
          1267 MiB available memory on the node where the printing process lives
------------------
     ethr =  1.92E-07,  avg # of iterations =  5.0

     negative rho (up, down):  3.741E-01 0.000E+00

     total cpu time spent up to now is        1.4 secs

     total energy              =      -2.06781906 Ry
     estimated scf accuracy    <       0.00003113 Ry

     iteration # 16     ecut=     5.00 Ry     beta= 0.70
     Davidson diagonalization with overlap

---- Real-time Memory Report at c_bands before calling an iterative solver
            54 MiB given to the printing process from OS
             0 MiB allocation reported by mallinfo(arena+hblkhd)
          1267 MiB available memory on the node where the printing process lives
------------------
     ethr =  1.92E-07,  avg # of iterations =  3.0

     negative rho (up, down):  3.757E-01 0.000E+00

     total cpu time spent up to now is        1.4 secs

     total energy              =      -2.06752616 Ry
     estimated scf accuracy    <       0.00008216 Ry

     iteration # 17     ecut=     5.00 Ry     beta= 0.70
     Davidson diagonalization with overlap

---- Real-time Memory Report at c_bands before calling an iterative solver
            54 MiB given to the printing process from OS
             0 MiB allocation reported by mallinfo(arena+hblkhd)
          1267 MiB available memory on the node where the printing process lives
------------------
     ethr =  1.92E-07,  avg # of iterations =  3.0

     negative rho (up, down):  3.744E-01 0.000E+00

     total cpu time spent up to now is        1.5 secs

     total energy              =      -2.06792337 Ry
     estimated scf accuracy    <       0.00002407 Ry

     iteration # 18     ecut=     5.00 Ry     beta= 0.70
     Davidson diagonalization with overlap

---- Real-time Memory Report at c_bands before calling an iterative solver
            54 MiB given to the printing process from OS
             0 MiB allocation reported by mallinfo(arena+hblkhd)
          1267 MiB available memory on the node where the printing process lives
------------------
     ethr =  1.92E-07,  avg # of iterations =  3.0

     negative rho (up, down):  3.768E-01 0.000E+00

     total cpu time spent up to now is        1.6 secs

     total energy              =      -2.06708075 Ry
     estimated scf accuracy    <       0.00004466 Ry

     iteration # 19     ecut=     5.00 Ry     beta= 0.70
     Davidson diagonalization with overlap

---- Real-time Memory Report at c_bands before calling an iterative solver
            54 MiB given to the printing process from OS
             0 MiB allocation reported by mallinfo(arena+hblkhd)
          1267 MiB available memory on the node where the printing process lives
------------------
     ethr =  1.92E-07,  avg # of iterations = 15.0

     negative rho (up, down):  3.762E-01 0.000E+00

     total cpu time spent up to now is        1.7 secs

     total energy              =      -2.06687174 Ry
     estimated scf accuracy    <       0.00000626 Ry

     iteration # 20     ecut=     5.00 Ry     beta= 0.70
     Davidson diagonalization with overlap

---- Real-time Memory Report at c_bands before calling an iterative solver
            54 MiB given to the printing process from OS
             0 MiB allocation reported by mallinfo(arena+hblkhd)
          1267 MiB available memory on the node where the printing process lives
------------------
     ethr =  1.92E-07,  avg # of iterations =  7.0

     negative rho (up, down):  3.762E-01 0.000E+00

     total cpu time spent up to now is        1.8 secs

     total energy              =      -2.06715470 Ry
     estimated scf accuracy    <       0.00002611 Ry

     iteration # 21     ecut=     5.00 Ry     beta= 0.70
     Davidson diagonalization with overlap

---- Real-time Memory Report at c_bands before calling an iterative solver
            54 MiB given to the printing process from OS
             0 MiB allocation reported by mallinfo(arena+hblkhd)
          1267 MiB available memory on the node where the printing process lives
------------------
     ethr =  1.92E-07,  avg # of iterations =  2.0

     negative rho (up, down):  3.760E-01 0.000E+00

     total cpu time spent up to now is        1.9 secs

     total energy              =      -2.06746496 Ry
     estimated scf accuracy    <       0.00002305 Ry

     iteration # 22     ecut=     5.00 Ry     beta= 0.70
     Davidson diagonalization with overlap

---- Real-time Memory Report at c_bands before calling an iterative solver
            54 MiB given to the printing process from OS
             0 MiB allocation reported by mallinfo(arena+hblkhd)
          1267 MiB available memory on the node where the printing process lives
------------------
     ethr =  1.92E-07,  avg # of iterations =  3.0

     negative rho (up, down):  3.761E-01 0.000E+00

     total cpu time spent up to now is        1.9 secs

     total energy              =      -2.06716670 Ry
     estimated scf accuracy    <       0.00002364 Ry

     iteration # 23     ecut=     5.00 Ry     beta= 0.70
     Davidson diagonalization with overlap

---- Real-time Memory Report at c_bands before calling an iterative solver
            54 MiB given to the printing process from OS
             0 MiB allocation reported by mallinfo(arena+hblkhd)
          1267 MiB available memory on the node where the printing process lives
------------------
     ethr =  1.92E-07,  avg # of iterations =  3.0

     negative rho (up, down):  3.759E-01 0.000E+00

     total cpu time spent up to now is        2.0 secs

     total energy              =      -2.06724356 Ry
     estimated scf accuracy    <       0.00002657 Ry

     iteration # 24     ecut=     5.00 Ry     beta= 0.70
     Davidson diagonalization with overlap

---- Real-time Memory Report at c_bands before calling an iterative solver
            54 MiB given to the printing process from OS
             0 MiB allocation reported by mallinfo(arena+hblkhd)
          1267 MiB available memory on the node where the printing process lives
------------------
     ethr =  1.92E-07,  avg # of iterations =  3.0

     negative rho (up, down):  3.749E-01 0.000E+00

     total cpu time spent up to now is        2.1 secs

     total energy              =      -2.06806053 Ry
     estimated scf accuracy    <       0.00003684 Ry

     iteration # 25     ecut=     5.00 Ry     beta= 0.70
     Davidson diagonalization with overlap

---- Real-time Memory Report at c_bands before calling an iterative solver
            54 MiB given to the printing process from OS
             0 MiB allocation reported by mallinfo(arena+hblkhd)
          1267 MiB available memory on the node where the printing process lives
------------------
     ethr =  1.92E-07,  avg # of iterations =  3.0

     negative rho (up, down):  3.750E-01 0.000E+00

     total cpu time spent up to now is        2.2 secs

     total energy              =      -2.06810179 Ry
     estimated scf accuracy    <       0.00005368 Ry

     iteration # 26     ecut=     5.00 Ry     beta= 0.70
     Davidson diagonalization with overlap

---- Real-time Memory Report at c_bands before calling an iterative solver
            54 MiB given to the printing process from OS
             0 MiB allocation reported by mallinfo(arena+hblkhd)
          1267 MiB available memory on the node where the printing process lives
------------------
     ethr =  1.92E-07,  avg # of iterations =  3.0

     negative rho (up, down):  3.744E-01 0.000E+00

     total cpu time spent up to now is        2.2 secs

     total energy              =      -2.06814554 Ry
     estimated scf accuracy    <       0.00005229 Ry

     iteration # 27     ecut=     5.00 Ry     beta= 0.70
     Davidson diagonalization with overlap

---- Real-time Memory Report at c_bands before calling an iterative solver
            54 MiB given to the printing process from OS
             0 MiB allocation reported by mallinfo(arena+hblkhd)
          1267 MiB available memory on the node where the printing process lives
------------------
     ethr =  1.92E-07,  avg # of iterations =  2.0

     negative rho (up, down):  3.750E-01 0.000E+00

     total cpu time spent up to now is        2.3 secs

     total energy              =      -2.06812345 Ry
     estimated scf accuracy    <       0.00006021 Ry

     iteration # 28     ecut=     5.00 Ry     beta= 0.70
     Davidson diagonalization with overlap

---- Real-time Memory Report at c_bands before calling an iterative solver
            54 MiB given to the printing process from OS
             0 MiB allocation reported by mallinfo(arena+hblkhd)
          1267 MiB available memory on the node where the printing process lives
------------------
     ethr =  1.92E-07,  avg # of iterations =  2.0

     negative rho (up, down):  3.755E-01 0.000E+00

     total cpu time spent up to now is        2.4 secs

     total energy              =      -2.06869446 Ry
     estimated scf accuracy    <       0.00005198 Ry

     iteration # 29     ecut=     5.00 Ry     beta= 0.70
     Davidson diagonalization with overlap

---- Real-time Memory Report at c_bands before calling an iterative solver
            54 MiB given to the printing process from OS
             0 MiB allocation reported by mallinfo(arena+hblkhd)
          1267 MiB available memory on the node where the printing process lives
------------------
     ethr =  1.92E-07,  avg # of iterations = 15.0

     negative rho (up, down):  3.763E-01 0.000E+00

     total cpu time spent up to now is        2.5 secs

     total energy              =      -2.06726703 Ry
     estimated scf accuracy    <       0.00021666 Ry

     iteration # 30     ecut=     5.00 Ry     beta= 0.70
     Davidson diagonalization with overlap

---- Real-time Memory Report at c_bands before calling an iterative solver
            54 MiB given to the printing process from OS
             0 MiB allocation reported by mallinfo(arena+hblkhd)
          1267 MiB available memory on the node where the printing process lives
------------------
     ethr =  1.92E-07,  avg # of iterations =  5.0

     negative rho (up, down):  3.737E-01 0.000E+00

     total cpu time spent up to now is        2.6 secs

     total energy              =      -2.06749363 Ry
     estimated scf accuracy    <       0.00027234 Ry

     iteration # 31     ecut=     5.00 Ry     beta= 0.70
     Davidson diagonalization with overlap

---- Real-time Memory Report at c_bands before calling an iterative solver
            54 MiB given to the printing process from OS
             0 MiB allocation reported by mallinfo(arena+hblkhd)
          1267 MiB available memory on the node where the printing process lives
------------------
     c_bands:  1 eigenvalues not converged
     ethr =  1.92E-07,  avg # of iterations = 20.0

     negative rho (up, down):  3.755E-01 0.000E+00

     total cpu time spent up to now is        2.7 secs

     total energy              =      -2.06627787 Ry
     estimated scf accuracy    <       0.00016502 Ry

     iteration # 32     ecut=     5.00 Ry     beta= 0.70
     Davidson diagonalization with overlap

---- Real-time Memory Report at c_bands before calling an iterative solver
            54 MiB given to the printing process from OS
             0 MiB allocation reported by mallinfo(arena+hblkhd)
          1267 MiB available memory on the node where the printing process lives
------------------
     ethr =  1.92E-07,  avg # of iterations = 10.0

     negative rho (up, down):  3.778E-01 0.000E+00

     total cpu time spent up to now is        2.8 secs

     total energy              =      -2.06662953 Ry
     estimated scf accuracy    <       0.00003664 Ry

     iteration # 33     ecut=     5.00 Ry     beta= 0.70
     Davidson diagonalization with overlap

---- Real-time Memory Report at c_bands before calling an iterative solver
            54 MiB given to the printing process from OS
             0 MiB allocation reported by mallinfo(arena+hblkhd)
          1267 MiB available memory on the node where the printing process lives
------------------
     ethr =  1.92E-07,  avg # of iterations =  6.0

     negative rho (up, down):  3.779E-01 0.000E+00

     total cpu time spent up to now is        2.9 secs

     total energy              =      -2.06657739 Ry
     estimated scf accuracy    <       0.00001738 Ry

     iteration # 34     ecut=     5.00 Ry     beta= 0.70
     Davidson diagonalization with overlap

---- Real-time Memory Report at c_bands before calling an iterative solver
            54 MiB given to the printing process from OS
             0 MiB allocation reported by mallinfo(arena+hblkhd)
          1267 MiB available memory on the node where the printing process lives
------------------
     ethr =  1.92E-07,  avg # of iterations =  3.0

     negative rho (up, down):  3.779E-01 0.000E+00

     total cpu time spent up to now is        2.9 secs

     total energy              =      -2.06613012 Ry
     estimated scf accuracy    <       0.00000972 Ry

     iteration # 35     ecut=     5.00 Ry     beta= 0.70
     Davidson diagonalization with overlap

---- Real-time Memory Report at c_bands before calling an iterative solver
            54 MiB given to the printing process from OS
             0 MiB allocation reported by mallinfo(arena+hblkhd)
          1267 MiB available memory on the node where the printing process lives
------------------
     ethr =  1.92E-07,  avg # of iterations = 10.0

     negative rho (up, down):  3.757E-01 0.000E+00

     total cpu time spent up to now is        3.0 secs

     total energy              =      -2.06627722 Ry
     estimated scf accuracy    <       0.00013772 Ry

     iteration # 36     ecut=     5.00 Ry     beta= 0.70
     Davidson diagonalization with overlap

---- Real-time Memory Report at c_bands before calling an iterative solver
            54 MiB given to the printing process from OS
             0 MiB allocation reported by mallinfo(arena+hblkhd)
          1267 MiB available memory on the node where the printing process lives
------------------
     ethr =  1.92E-07,  avg # of iterations =  7.0

     negative rho (up, down):  3.748E-01 0.000E+00

     total cpu time spent up to now is        3.1 secs

     total energy              =      -2.06792132 Ry
     estimated scf accuracy    <       0.00001002 Ry

     iteration # 37     ecut=     5.00 Ry     beta= 0.70
     Davidson diagonalization with overlap

---- Real-time Memory Report at c_bands before calling an iterative solver
            54 MiB given to the printing process from OS
             0 MiB allocation reported by mallinfo(arena+hblkhd)
          1267 MiB available memory on the node where the printing process lives
------------------
     ethr =  1.92E-07,  avg # of iterations = 10.0

     negative rho (up, down):  3.756E-01 0.000E+00

     total cpu time spent up to now is        3.2 secs

     total energy              =      -2.06758322 Ry
     estimated scf accuracy    <       0.00003745 Ry

     iteration # 38     ecut=     5.00 Ry     beta= 0.70
     Davidson diagonalization with overlap

---- Real-time Memory Report at c_bands before calling an iterative solver
            54 MiB given to the printing process from OS
             0 MiB allocation reported by mallinfo(arena+hblkhd)
          1267 MiB available memory on the node where the printing process lives
------------------
     ethr =  1.92E-07,  avg # of iterations =  3.0

     negative rho (up, down):  3.771E-01 0.000E+00

     total cpu time spent up to now is        3.3 secs

     total energy              =      -2.06669184 Ry
     estimated scf accuracy    <       0.00001127 Ry

     iteration # 39     ecut=     5.00 Ry     beta= 0.70
     Davidson diagonalization with overlap

---- Real-time Memory Report at c_bands before calling an iterative solver
            54 MiB given to the printing process from OS
             0 MiB allocation reported by mallinfo(arena+hblkhd)
          1267 MiB available memory on the node where the printing process lives
------------------
     ethr =  1.92E-07,  avg # of iterations =  8.0

     negative rho (up, down):  3.757E-01 0.000E+00

     total cpu time spent up to now is        3.4 secs

     total energy              =      -2.06685903 Ry
     estimated scf accuracy    <       0.00010786 Ry

     iteration # 40     ecut=     5.00 Ry     beta= 0.70
     Davidson diagonalization with overlap

---- Real-time Memory Report at c_bands before calling an iterative solver
            54 MiB given to the printing process from OS
             0 MiB allocation reported by mallinfo(arena+hblkhd)
          1267 MiB available memory on the node where the printing process lives
------------------
     ethr =  1.92E-07,  avg # of iterations =  5.0

     negative rho (up, down):  3.756E-01 0.000E+00

     total cpu time spent up to now is        3.5 secs

     total energy              =      -2.06744520 Ry
     estimated scf accuracy    <       0.00002589 Ry

     iteration # 41     ecut=     5.00 Ry     beta= 0.70
     Davidson diagonalization with overlap

---- Real-time Memory Report at c_bands before calling an iterative solver
            54 MiB given to the printing process from OS
             0 MiB allocation reported by mallinfo(arena+hblkhd)
          1267 MiB available memory on the node where the printing process lives
------------------
     ethr =  1.92E-07,  avg # of iterations =  3.0

     negative rho (up, down):  3.763E-01 0.000E+00

     total cpu time spent up to now is        3.6 secs

     total energy              =      -2.06727958 Ry
     estimated scf accuracy    <       0.00001812 Ry

     iteration # 42     ecut=     5.00 Ry     beta= 0.70
     Davidson diagonalization with overlap

---- Real-time Memory Report at c_bands before calling an iterative solver
            54 MiB given to the printing process from OS
             0 MiB allocation reported by mallinfo(arena+hblkhd)
          1267 MiB available memory on the node where the printing process lives
------------------
     ethr =  1.92E-07,  avg # of iterations =  4.0

     negative rho (up, down):  3.765E-01 0.000E+00

     total cpu time spent up to now is        3.6 secs

     total energy              =      -2.06712014 Ry
     estimated scf accuracy    <       0.00003154 Ry

     iteration # 43     ecut=     5.00 Ry     beta= 0.70
     Davidson diagonalization with overlap

---- Real-time Memory Report at c_bands before calling an iterative solver
            54 MiB given to the printing process from OS
             0 MiB allocation reported by mallinfo(arena+hblkhd)
          1267 MiB available memory on the node where the printing process lives
------------------
     ethr =  1.92E-07,  avg # of iterations =  4.0

     negative rho (up, down):  3.767E-01 0.000E+00

     total cpu time spent up to now is        3.7 secs

     total energy              =      -2.06721600 Ry
     estimated scf accuracy    <       0.00001600 Ry

     iteration # 44     ecut=     5.00 Ry     beta= 0.70
     Davidson diagonalization with overlap

---- Real-time Memory Report at c_bands before calling an iterative solver
            54 MiB given to the printing process from OS
             0 MiB allocation reported by mallinfo(arena+hblkhd)
          1267 MiB available memory on the node where the printing process lives
------------------
     ethr =  1.92E-07,  avg # of iterations =  3.0

     negative rho (up, down):  3.687E-01 0.000E+00

     total cpu time spent up to now is        3.8 secs

     total energy              =      -2.06981698 Ry
     estimated scf accuracy    <       0.00001857 Ry

     iteration # 45     ecut=     5.00 Ry     beta= 0.70
     Davidson diagonalization with overlap

---- Real-time Memory Report at c_bands before calling an iterative solver
            54 MiB given to the printing process from OS
             0 MiB allocation reported by mallinfo(arena+hblkhd)
          1267 MiB available memory on the node where the printing process lives
------------------
     ethr =  1.92E-07,  avg # of iterations =  8.0

     negative rho (up, down):  3.844E-01 0.000E+00

     total cpu time spent up to now is        3.9 secs

     total energy              =      -2.06515026 Ry
     estimated scf accuracy    <       0.00021677 Ry

     iteration # 46     ecut=     5.00 Ry     beta= 0.70
     Davidson diagonalization with overlap

---- Real-time Memory Report at c_bands before calling an iterative solver
            54 MiB given to the printing process from OS
             0 MiB allocation reported by mallinfo(arena+hblkhd)
          1267 MiB available memory on the node where the printing process lives
------------------
     ethr =  1.92E-07,  avg # of iterations =  4.0

     negative rho (up, down):  3.761E-01 0.000E+00

     total cpu time spent up to now is        4.0 secs

     total energy              =      -2.06652158 Ry
     estimated scf accuracy    <       0.00029627 Ry

     iteration # 47     ecut=     5.00 Ry     beta= 0.70
     Davidson diagonalization with overlap

---- Real-time Memory Report at c_bands before calling an iterative solver
            54 MiB given to the printing process from OS
             0 MiB allocation reported by mallinfo(arena+hblkhd)
          1267 MiB available memory on the node where the printing process lives
------------------
     ethr =  1.92E-07,  avg # of iterations =  4.0

     negative rho (up, down):  3.817E-01 0.000E+00

     total cpu time spent up to now is        4.1 secs

     total energy              =      -2.06538363 Ry
     estimated scf accuracy    <       0.00000908 Ry

     iteration # 48     ecut=     5.00 Ry     beta= 0.70
     Davidson diagonalization with overlap

---- Real-time Memory Report at c_bands before calling an iterative solver
            54 MiB given to the printing process from OS
             0 MiB allocation reported by mallinfo(arena+hblkhd)
          1267 MiB available memory on the node where the printing process lives
------------------
     ethr =  1.92E-07,  avg # of iterations =  4.0

     negative rho (up, down):  3.735E-01 0.000E+00

     total cpu time spent up to now is        4.1 secs

     total energy              =      -2.06813974 Ry
     estimated scf accuracy    <       0.00011655 Ry

     iteration # 49     ecut=     5.00 Ry     beta= 0.70
     Davidson diagonalization with overlap

---- Real-time Memory Report at c_bands before calling an iterative solver
            54 MiB given to the printing process from OS
             0 MiB allocation reported by mallinfo(arena+hblkhd)
          1267 MiB available memory on the node where the printing process lives
------------------
     ethr =  1.92E-07,  avg # of iterations =  4.0

     negative rho (up, down):  3.848E-01 0.000E+00

     total cpu time spent up to now is        4.2 secs

     total energy              =      -2.06530822 Ry
     estimated scf accuracy    <       0.00003892 Ry

     iteration # 50     ecut=     5.00 Ry     beta= 0.70
     Davidson diagonalization with overlap

---- Real-time Memory Report at c_bands before calling an iterative solver
            54 MiB given to the printing process from OS
             0 MiB allocation reported by mallinfo(arena+hblkhd)
          1267 MiB available memory on the node where the printing process lives
------------------
     ethr =  1.92E-07,  avg # of iterations =  5.0

     negative rho (up, down):  3.745E-01 0.000E+00

     total cpu time spent up to now is        4.3 secs

     total energy              =      -2.06668677 Ry
     estimated scf accuracy    <       0.00059190 Ry

     iteration # 51     ecut=     5.00 Ry     beta= 0.70
     Davidson diagonalization with overlap

---- Real-time Memory Report at c_bands before calling an iterative solver
            54 MiB given to the printing process from OS
             0 MiB allocation reported by mallinfo(arena+hblkhd)
          1267 MiB available memory on the node where the printing process lives
------------------
     ethr =  1.92E-07,  avg # of iterations =  5.0

     negative rho (up, down):  3.776E-01 0.000E+00

     total cpu time spent up to now is        4.4 secs

     total energy              =      -2.06688360 Ry
     estimated scf accuracy    <       0.00003680 Ry

     iteration # 52     ecut=     5.00 Ry     beta= 0.70
     Davidson diagonalization with overlap

---- Real-time Memory Report at c_bands before calling an iterative solver
            54 MiB given to the printing process from OS
             0 MiB allocation reported by mallinfo(arena+hblkhd)
          1267 MiB available memory on the node where the printing process lives
------------------
     ethr =  1.92E-07,  avg # of iterations =  3.0

     negative rho (up, down):  3.777E-01 0.000E+00

     total cpu time spent up to now is        4.5 secs

     total energy              =      -2.06722482 Ry
     estimated scf accuracy    <       0.00002516 Ry

     iteration # 53     ecut=     5.00 Ry     beta= 0.70
     Davidson diagonalization with overlap

---- Real-time Memory Report at c_bands before calling an iterative solver
            54 MiB given to the printing process from OS
             0 MiB allocation reported by mallinfo(arena+hblkhd)
          1267 MiB available memory on the node where the printing process lives
------------------
     ethr =  1.92E-07,  avg # of iterations =  3.0

     negative rho (up, down):  3.760E-01 0.000E+00

     total cpu time spent up to now is        4.5 secs

     total energy              =      -2.06727651 Ry
     estimated scf accuracy    <       0.00006830 Ry

     iteration # 54     ecut=     5.00 Ry     beta= 0.70
     Davidson diagonalization with overlap

---- Real-time Memory Report at c_bands before calling an iterative solver
            54 MiB given to the printing process from OS
             0 MiB allocation reported by mallinfo(arena+hblkhd)
          1267 MiB available memory on the node where the printing process lives
------------------
     ethr =  1.92E-07,  avg # of iterations =  4.0

     negative rho (up, down):  3.755E-01 0.000E+00

     total cpu time spent up to now is        4.6 secs

     total energy              =      -2.06787120 Ry
     estimated scf accuracy    <       0.00003435 Ry

     iteration # 55     ecut=     5.00 Ry     beta= 0.70
     Davidson diagonalization with overlap

---- Real-time Memory Report at c_bands before calling an iterative solver
            54 MiB given to the printing process from OS
             0 MiB allocation reported by mallinfo(arena+hblkhd)
          1267 MiB available memory on the node where the printing process lives
------------------
     ethr =  1.92E-07,  avg # of iterations =  3.0

     negative rho (up, down):  3.758E-01 0.000E+00

     total cpu time spent up to now is        4.7 secs

     total energy              =      -2.06642278 Ry
     estimated scf accuracy    <       0.00004656 Ry

     iteration # 56     ecut=     5.00 Ry     beta= 0.70
     Davidson diagonalization with overlap

---- Real-time Memory Report at c_bands before calling an iterative solver
            54 MiB given to the printing process from OS
             0 MiB allocation reported by mallinfo(arena+hblkhd)
          1267 MiB available memory on the node where the printing process lives
------------------
     ethr =  1.92E-07,  avg # of iterations =  5.0

     negative rho (up, down):  3.769E-01 0.000E+00

     total cpu time spent up to now is        4.8 secs

     total energy              =      -2.06662511 Ry
     estimated scf accuracy    <       0.00023713 Ry

     iteration # 57     ecut=     5.00 Ry     beta= 0.70
     Davidson diagonalization with overlap

---- Real-time Memory Report at c_bands before calling an iterative solver
            54 MiB given to the printing process from OS
             0 MiB allocation reported by mallinfo(arena+hblkhd)
          1267 MiB available memory on the node where the printing process lives
------------------
     ethr =  1.92E-07,  avg # of iterations =  3.0

     negative rho (up, down):  3.764E-01 0.000E+00

     total cpu time spent up to now is        4.9 secs

     total energy              =      -2.06690442 Ry
     estimated scf accuracy    <       0.00003740 Ry

     iteration # 58     ecut=     5.00 Ry     beta= 0.70
     Davidson diagonalization with overlap

---- Real-time Memory Report at c_bands before calling an iterative solver
            54 MiB given to the printing process from OS
             0 MiB allocation reported by mallinfo(arena+hblkhd)
          1267 MiB available memory on the node where the printing process lives
------------------
     ethr =  1.92E-07,  avg # of iterations =  8.0

     negative rho (up, down):  3.775E-01 0.000E+00

     total cpu time spent up to now is        4.9 secs

     total energy              =      -2.06634312 Ry
     estimated scf accuracy    <       0.00009052 Ry

     iteration # 59     ecut=     5.00 Ry     beta= 0.70
     Davidson diagonalization with overlap

---- Real-time Memory Report at c_bands before calling an iterative solver
            54 MiB given to the printing process from OS
             0 MiB allocation reported by mallinfo(arena+hblkhd)
          1267 MiB available memory on the node where the printing process lives
------------------
     ethr =  1.92E-07,  avg # of iterations =  3.0

     negative rho (up, down):  3.773E-01 0.000E+00

     total cpu time spent up to now is        5.0 secs

     total energy              =      -2.06665969 Ry
     estimated scf accuracy    <       0.00000199 Ry

     iteration # 60     ecut=     5.00 Ry     beta= 0.70
     Davidson diagonalization with overlap

---- Real-time Memory Report at c_bands before calling an iterative solver
            54 MiB given to the printing process from OS
             0 MiB allocation reported by mallinfo(arena+hblkhd)
          1267 MiB available memory on the node where the printing process lives
------------------
     ethr =  9.94E-08,  avg # of iterations =  4.0

     negative rho (up, down):  3.776E-01 0.000E+00

     total cpu time spent up to now is        5.1 secs

     total energy              =      -2.06600167 Ry
     estimated scf accuracy    <       0.00001149 Ry

     iteration # 61     ecut=     5.00 Ry     beta= 0.70
     Davidson diagonalization with overlap

---- Real-time Memory Report at c_bands before calling an iterative solver
            54 MiB given to the printing process from OS
             0 MiB allocation reported by mallinfo(arena+hblkhd)
          1267 MiB available memory on the node where the printing process lives
------------------
     ethr =  9.94E-08,  avg # of iterations =  4.0

     negative rho (up, down):  3.777E-01 0.000E+00

     total cpu time spent up to now is        5.2 secs

     total energy              =      -2.06610645 Ry
     estimated scf accuracy    <       0.00001233 Ry

     iteration # 62     ecut=     5.00 Ry     beta= 0.70
     Davidson diagonalization with overlap

---- Real-time Memory Report at c_bands before calling an iterative solver
            54 MiB given to the printing process from OS
             0 MiB allocation reported by mallinfo(arena+hblkhd)
          1267 MiB available memory on the node where the printing process lives
------------------
     ethr =  9.94E-08,  avg # of iterations =  3.0

     negative rho (up, down):  3.775E-01 0.000E+00

     total cpu time spent up to now is        5.3 secs

     total energy              =      -2.06656692 Ry
     estimated scf accuracy    <       0.00000696 Ry

     iteration # 63     ecut=     5.00 Ry     beta= 0.70
     Davidson diagonalization with overlap

---- Real-time Memory Report at c_bands before calling an iterative solver
            54 MiB given to the printing process from OS
             0 MiB allocation reported by mallinfo(arena+hblkhd)
          1267 MiB available memory on the node where the printing process lives
------------------
     ethr =  9.94E-08,  avg # of iterations =  4.0

     negative rho (up, down):  3.779E-01 0.000E+00

     total cpu time spent up to now is        5.3 secs

     total energy              =      -2.06644399 Ry
     estimated scf accuracy    <       0.00001557 Ry

     iteration # 64     ecut=     5.00 Ry     beta= 0.70
     Davidson diagonalization with overlap

---- Real-time Memory Report at c_bands before calling an iterative solver
            54 MiB given to the printing process from OS
             0 MiB allocation reported by mallinfo(arena+hblkhd)
          1267 MiB available memory on the node where the printing process lives
------------------
     ethr =  9.94E-08,  avg # of iterations =  4.0

     negative rho (up, down):  3.780E-01 0.000E+00

     total cpu time spent up to now is        5.4 secs

     total energy              =      -2.06602670 Ry
     estimated scf accuracy    <       0.00000124 Ry

     iteration # 65     ecut=     5.00 Ry     beta= 0.70
     Davidson diagonalization with overlap

---- Real-time Memory Report at c_bands before calling an iterative solver
            54 MiB given to the printing process from OS
             0 MiB allocation reported by mallinfo(arena+hblkhd)
          1267 MiB available memory on the node where the printing process lives
------------------
     ethr =  6.20E-08,  avg # of iterations = 14.0

     negative rho (up, down):  3.775E-01 0.000E+00

     total cpu time spent up to now is        5.5 secs

     total energy              =      -2.06564086 Ry
     estimated scf accuracy    <       0.00010762 Ry

     iteration # 66     ecut=     5.00 Ry     beta= 0.70
     Davidson diagonalization with overlap

---- Real-time Memory Report at c_bands before calling an iterative solver
            54 MiB given to the printing process from OS
             0 MiB allocation reported by mallinfo(arena+hblkhd)
          1267 MiB available memory on the node where the printing process lives
------------------
     ethr =  6.20E-08,  avg # of iterations =  8.0

     negative rho (up, down):  3.778E-01 0.000E+00

     total cpu time spent up to now is        5.6 secs

     total energy              =      -2.06640576 Ry
     estimated scf accuracy    <       0.00000232 Ry

     iteration # 67     ecut=     5.00 Ry     beta= 0.70
     Davidson diagonalization with overlap

---- Real-time Memory Report at c_bands before calling an iterative solver
            54 MiB given to the printing process from OS
             0 MiB allocation reported by mallinfo(arena+hblkhd)
          1267 MiB available memory on the node where the printing process lives
------------------
     ethr =  6.20E-08,  avg # of iterations =  4.0

     negative rho (up, down):  3.780E-01 0.000E+00

     total cpu time spent up to now is        5.7 secs

     total energy              =      -2.06649374 Ry
     estimated scf accuracy    <       0.00000416 Ry

     iteration # 68     ecut=     5.00 Ry     beta= 0.70
     Davidson diagonalization with overlap

---- Real-time Memory Report at c_bands before calling an iterative solver
            54 MiB given to the printing process from OS
             0 MiB allocation reported by mallinfo(arena+hblkhd)
          1267 MiB available memory on the node where the printing process lives
------------------
     ethr =  6.20E-08,  avg # of iterations =  3.0

     negative rho (up, down):  3.782E-01 0.000E+00

     total cpu time spent up to now is        5.8 secs

     total energy              =      -2.06655848 Ry
     estimated scf accuracy    <       0.00000099 Ry

     iteration # 69     ecut=     5.00 Ry     beta= 0.70
     Davidson diagonalization with overlap

---- Real-time Memory Report at c_bands before calling an iterative solver
            54 MiB given to the printing process from OS
             0 MiB allocation reported by mallinfo(arena+hblkhd)
          1267 MiB available memory on the node where the printing process lives
------------------
     ethr =  4.95E-08,  avg # of iterations =  4.0

     negative rho (up, down):  3.783E-01 0.000E+00

     total cpu time spent up to now is        5.9 secs

     total energy              =      -2.06654211 Ry
     estimated scf accuracy    <       0.00000899 Ry

     iteration # 70     ecut=     5.00 Ry     beta= 0.70
     Davidson diagonalization with overlap

---- Real-time Memory Report at c_bands before calling an iterative solver
            54 MiB given to the printing process from OS
             0 MiB allocation reported by mallinfo(arena+hblkhd)
          1267 MiB available memory on the node where the printing process lives
------------------
     ethr =  4.95E-08,  avg # of iterations =  3.0

     negative rho (up, down):  3.779E-01 0.000E+00

     total cpu time spent up to now is        5.9 secs

     total energy              =      -2.06653650 Ry
     estimated scf accuracy    <       0.00000653 Ry

     iteration # 71     ecut=     5.00 Ry     beta= 0.70
     Davidson diagonalization with overlap

---- Real-time Memory Report at c_bands before calling an iterative solver
            54 MiB given to the printing process from OS
             0 MiB allocation reported by mallinfo(arena+hblkhd)
          1267 MiB available memory on the node where the printing process lives
------------------
     ethr =  4.95E-08,  avg # of iterations =  4.0

     negative rho (up, down):  3.777E-01 0.000E+00

     total cpu time spent up to now is        6.0 secs

     total energy              =      -2.06661317 Ry
     estimated scf accuracy    <       0.00000029 Ry

     iteration # 72     ecut=     5.00 Ry     beta= 0.70
     Davidson diagonalization with overlap

---- Real-time Memory Report at c_bands before calling an iterative solver
            54 MiB given to the printing process from OS
             0 MiB allocation reported by mallinfo(arena+hblkhd)
          1267 MiB available memory on the node where the printing process lives
------------------
     ethr =  1.44E-08,  avg # of iterations =  4.0

     negative rho (up, down):  3.778E-01 0.000E+00

     total cpu time spent up to now is        6.1 secs

     total energy              =      -2.06661712 Ry
     estimated scf accuracy    <       0.00000447 Ry

     iteration # 73     ecut=     5.00 Ry     beta= 0.70
     Davidson diagonalization with overlap

---- Real-time Memory Report at c_bands before calling an iterative solver
            54 MiB given to the printing process from OS
             0 MiB allocation reported by mallinfo(arena+hblkhd)
          1267 MiB available memory on the node where the printing process lives
------------------
     ethr =  1.44E-08,  avg # of iterations =  4.0

     negative rho (up, down):  3.778E-01 0.000E+00

     total cpu time spent up to now is        6.2 secs

     total energy              =      -2.06670772 Ry
     estimated scf accuracy    <       0.00000255 Ry

     iteration # 74     ecut=     5.00 Ry     beta= 0.70
     Davidson diagonalization with overlap

---- Real-time Memory Report at c_bands before calling an iterative solver
            54 MiB given to the printing process from OS
             0 MiB allocation reported by mallinfo(arena+hblkhd)
          1267 MiB available memory on the node where the printing process lives
------------------
     ethr =  1.44E-08,  avg # of iterations =  4.0

     negative rho (up, down):  3.777E-01 0.000E+00

     total cpu time spent up to now is        6.2 secs

     total energy              =      -2.06671170 Ry
     estimated scf accuracy    <       0.00000798 Ry

     iteration # 75     ecut=     5.00 Ry     beta= 0.70
     Davidson diagonalization with overlap

---- Real-time Memory Report at c_bands before calling an iterative solver
            54 MiB given to the printing process from OS
             0 MiB allocation reported by mallinfo(arena+hblkhd)
          1267 MiB available memory on the node where the printing process lives
------------------
     ethr =  1.44E-08,  avg # of iterations =  3.0

     negative rho (up, down):  3.773E-01 0.000E+00

     total cpu time spent up to now is        6.3 secs

     total energy              =      -2.06676956 Ry
     estimated scf accuracy    <       0.00000581 Ry

     iteration # 76     ecut=     5.00 Ry     beta= 0.70
     Davidson diagonalization with overlap

---- Real-time Memory Report at c_bands before calling an iterative solver
            54 MiB given to the printing process from OS
             0 MiB allocation reported by mallinfo(arena+hblkhd)
          1267 MiB available memory on the node where the printing process lives
------------------
     ethr =  1.44E-08,  avg # of iterations =  5.0

     negative rho (up, down):  3.775E-01 0.000E+00

     total cpu time spent up to now is        6.4 secs

     total energy              =      -2.06681789 Ry
     estimated scf accuracy    <       0.00001192 Ry

     iteration # 77     ecut=     5.00 Ry     beta= 0.70
     Davidson diagonalization with overlap

---- Real-time Memory Report at c_bands before calling an iterative solver
            54 MiB given to the printing process from OS
             0 MiB allocation reported by mallinfo(arena+hblkhd)
          1267 MiB available memory on the node where the printing process lives
------------------
     ethr =  1.44E-08,  avg # of iterations = 14.0

     negative rho (up, down):  3.777E-01 0.000E+00

     total cpu time spent up to now is        6.5 secs

     total energy              =      -2.06654404 Ry
     estimated scf accuracy    <       0.00000902 Ry

     iteration # 78     ecut=     5.00 Ry     beta= 0.70
     Davidson diagonalization with overlap

---- Real-time Memory Report at c_bands before calling an iterative solver
            54 MiB given to the printing process from OS
             0 MiB allocation reported by mallinfo(arena+hblkhd)
          1267 MiB available memory on the node where the printing process lives
------------------
     ethr =  1.44E-08,  avg # of iterations =  4.0

     negative rho (up, down):  3.778E-01 0.000E+00

     total cpu time spent up to now is        6.6 secs

     total energy              =      -2.06654641 Ry
     estimated scf accuracy    <       0.00000123 Ry

     iteration # 79     ecut=     5.00 Ry     beta= 0.70
     Davidson diagonalization with overlap

---- Real-time Memory Report at c_bands before calling an iterative solver
            54 MiB given to the printing process from OS
             0 MiB allocation reported by mallinfo(arena+hblkhd)
          1267 MiB available memory on the node where the printing process lives
------------------
     ethr =  1.44E-08,  avg # of iterations =  4.0

     negative rho (up, down):  3.777E-01 0.000E+00

     total cpu time spent up to now is        6.7 secs

     total energy              =      -2.06657682 Ry
     estimated scf accuracy    <       0.00000047 Ry

     iteration # 80     ecut=     5.00 Ry     beta= 0.70
     Davidson diagonalization with overlap

---- Real-time Memory Report at c_bands before calling an iterative solver
            54 MiB given to the printing process from OS
             0 MiB allocation reported by mallinfo(arena+hblkhd)
          1267 MiB available memory on the node where the printing process lives
------------------
     ethr =  1.44E-08,  avg # of iterations =  4.0

     negative rho (up, down):  3.779E-01 0.000E+00

     total cpu time spent up to now is        6.8 secs

     total energy              =      -2.06656093 Ry
     estimated scf accuracy    <       0.00000419 Ry

     iteration # 81     ecut=     5.00 Ry     beta= 0.70
     Davidson diagonalization with overlap

---- Real-time Memory Report at c_bands before calling an iterative solver
            54 MiB given to the printing process from OS
             0 MiB allocation reported by mallinfo(arena+hblkhd)
          1267 MiB available memory on the node where the printing process lives
------------------
     ethr =  1.44E-08,  avg # of iterations =  4.0

     negative rho (up, down):  3.779E-01 0.000E+00

     total cpu time spent up to now is        6.8 secs

     total energy              =      -2.06646629 Ry
     estimated scf accuracy    <       0.00000999 Ry

     iteration # 82     ecut=     5.00 Ry     beta= 0.70
     Davidson diagonalization with overlap

---- Real-time Memory Report at c_bands before calling an iterative solver
            54 MiB given to the printing process from OS
             0 MiB allocation reported by mallinfo(arena+hblkhd)
          1267 MiB available memory on the node where the printing process lives
------------------
     ethr =  1.44E-08,  avg # of iterations =  5.0

     negative rho (up, down):  3.781E-01 0.000E+00

     total cpu time spent up to now is        6.9 secs

     total energy              =      -2.06649917 Ry
     estimated scf accuracy    <       0.00000020 Ry

     iteration # 83     ecut=     5.00 Ry     beta= 0.70
     Davidson diagonalization with overlap

---- Real-time Memory Report at c_bands before calling an iterative solver
            54 MiB given to the printing process from OS
             0 MiB allocation reported by mallinfo(arena+hblkhd)
          1267 MiB available memory on the node where the printing process lives
------------------
     ethr =  1.02E-08,  avg # of iterations =  5.0

     negative rho (up, down):  3.781E-01 0.000E+00

     total cpu time spent up to now is        7.0 secs

     total energy              =      -2.06650113 Ry
     estimated scf accuracy    <       0.00000628 Ry

     iteration # 84     ecut=     5.00 Ry     beta= 0.70
     Davidson diagonalization with overlap

---- Real-time Memory Report at c_bands before calling an iterative solver
            54 MiB given to the printing process from OS
             0 MiB allocation reported by mallinfo(arena+hblkhd)
          1267 MiB available memory on the node where the printing process lives
------------------
     ethr =  1.02E-08,  avg # of iterations =  4.0

     negative rho (up, down):  3.778E-01 0.000E+00

     total cpu time spent up to now is        7.1 secs

     total energy              =      -2.06653464 Ry
     estimated scf accuracy    <       0.00000198 Ry

     iteration # 85     ecut=     5.00 Ry     beta= 0.70
     Davidson diagonalization with overlap

---- Real-time Memory Report at c_bands before calling an iterative solver
            54 MiB given to the printing process from OS
             0 MiB allocation reported by mallinfo(arena+hblkhd)
          1267 MiB available memory on the node where the printing process lives
------------------
     ethr =  1.02E-08,  avg # of iterations =  5.0

     negative rho (up, down):  3.776E-01 0.000E+00

     total cpu time spent up to now is        7.2 secs

     total energy              =      -2.06663296 Ry
     estimated scf accuracy    <       0.00000097 Ry

     iteration # 86     ecut=     5.00 Ry     beta= 0.70
     Davidson diagonalization with overlap

---- Real-time Memory Report at c_bands before calling an iterative solver
            54 MiB given to the printing process from OS
             0 MiB allocation reported by mallinfo(arena+hblkhd)
          1267 MiB available memory on the node where the printing process lives
------------------
     ethr =  1.02E-08,  avg # of iterations =  3.0

     negative rho (up, down):  3.776E-01 0.000E+00

     total cpu time spent up to now is        7.3 secs

     total energy              =      -2.06660519 Ry
     estimated scf accuracy    <       0.00000189 Ry

     iteration # 87     ecut=     5.00 Ry     beta= 0.70
     Davidson diagonalization with overlap

---- Real-time Memory Report at c_bands before calling an iterative solver
            54 MiB given to the printing process from OS
             0 MiB allocation reported by mallinfo(arena+hblkhd)
          1267 MiB available memory on the node where the printing process lives
------------------
     ethr =  1.02E-08,  avg # of iterations =  3.0

     negative rho (up, down):  3.780E-01 0.000E+00

     total cpu time spent up to now is        7.3 secs

     total energy              =      -2.06650077 Ry
     estimated scf accuracy    <       0.00000075 Ry

     iteration # 88     ecut=     5.00 Ry     beta= 0.70
     Davidson diagonalization with overlap

---- Real-time Memory Report at c_bands before calling an iterative solver
            54 MiB given to the printing process from OS
             0 MiB allocation reported by mallinfo(arena+hblkhd)
          1267 MiB available memory on the node where the printing process lives
------------------
     ethr =  1.02E-08,  avg # of iterations =  4.0

     negative rho (up, down):  3.778E-01 0.000E+00

     total cpu time spent up to now is        7.4 secs

     total energy              =      -2.06655609 Ry
     estimated scf accuracy    <       0.00000020 Ry

     iteration # 89     ecut=     5.00 Ry     beta= 0.70
     Davidson diagonalization with overlap

---- Real-time Memory Report at c_bands before calling an iterative solver
            54 MiB given to the printing process from OS
             0 MiB allocation reported by mallinfo(arena+hblkhd)
          1267 MiB available memory on the node where the printing process lives
------------------
     ethr =  1.01E-08,  avg # of iterations =  4.0

     negative rho (up, down):  3.777E-01 0.000E+00

     total cpu time spent up to now is        7.5 secs

     total energy              =      -2.06658329 Ry
     estimated scf accuracy    <       0.00000012 Ry

     iteration # 90     ecut=     5.00 Ry     beta= 0.70
     Davidson diagonalization with overlap

---- Real-time Memory Report at c_bands before calling an iterative solver
            54 MiB given to the printing process from OS
             0 MiB allocation reported by mallinfo(arena+hblkhd)
          1267 MiB available memory on the node where the printing process lives
------------------
     ethr =  5.92E-09,  avg # of iterations =  4.0

     negative rho (up, down):  3.777E-01 0.000E+00

     total cpu time spent up to now is        7.6 secs

     total energy              =      -2.06658307 Ry
     estimated scf accuracy    <       0.00000073 Ry

     iteration # 91     ecut=     5.00 Ry     beta= 0.70
     Davidson diagonalization with overlap

---- Real-time Memory Report at c_bands before calling an iterative solver
            54 MiB given to the printing process from OS
             0 MiB allocation reported by mallinfo(arena+hblkhd)
          1267 MiB available memory on the node where the printing process lives
------------------
     ethr =  5.92E-09,  avg # of iterations =  3.0

     negative rho (up, down):  3.777E-01 0.000E+00

     total cpu time spent up to now is        7.6 secs

     total energy              =      -2.06657831 Ry
     estimated scf accuracy    <       0.00000026 Ry

     iteration # 92     ecut=     5.00 Ry     beta= 0.70
     Davidson diagonalization with overlap

---- Real-time Memory Report at c_bands before calling an iterative solver
            54 MiB given to the printing process from OS
             0 MiB allocation reported by mallinfo(arena+hblkhd)
          1267 MiB available memory on the node where the printing process lives
------------------
     ethr =  5.92E-09,  avg # of iterations =  3.0

     negative rho (up, down):  3.778E-01 0.000E+00

     total cpu time spent up to now is        7.7 secs

     total energy              =      -2.06656765 Ry
     estimated scf accuracy    <       0.00000078 Ry

     iteration # 93     ecut=     5.00 Ry     beta= 0.70
     Davidson diagonalization with overlap

---- Real-time Memory Report at c_bands before calling an iterative solver
            54 MiB given to the printing process from OS
             0 MiB allocation reported by mallinfo(arena+hblkhd)
          1267 MiB available memory on the node where the printing process lives
------------------
     ethr =  5.92E-09,  avg # of iterations =  3.0

     negative rho (up, down):  3.779E-01 0.000E+00

     total cpu time spent up to now is        7.8 secs

     total energy              =      -2.06653912 Ry
     estimated scf accuracy    <       0.00000187 Ry

     iteration # 94     ecut=     5.00 Ry     beta= 0.70
     Davidson diagonalization with overlap

---- Real-time Memory Report at c_bands before calling an iterative solver
            54 MiB given to the printing process from OS
             0 MiB allocation reported by mallinfo(arena+hblkhd)
          1267 MiB available memory on the node where the printing process lives
------------------
     ethr =  5.92E-09,  avg # of iterations =  4.0

     negative rho (up, down):  3.779E-01 0.000E+00

     total cpu time spent up to now is        7.9 secs

     total energy              =      -2.06654260 Ry
     estimated scf accuracy    <       0.00000075 Ry

     iteration # 95     ecut=     5.00 Ry     beta= 0.70
     Davidson diagonalization with overlap

---- Real-time Memory Report at c_bands before calling an iterative solver
            54 MiB given to the printing process from OS
             0 MiB allocation reported by mallinfo(arena+hblkhd)
          1267 MiB available memory on the node where the printing process lives
------------------
     ethr =  5.92E-09,  avg # of iterations =  2.0

     negative rho (up, down):  3.779E-01 0.000E+00

     total cpu time spent up to now is        7.9 secs

     total energy              =      -2.06653057 Ry
     estimated scf accuracy    <       0.00000102 Ry

     iteration # 96     ecut=     5.00 Ry     beta= 0.70
     Davidson diagonalization with overlap

---- Real-time Memory Report at c_bands before calling an iterative solver
            54 MiB given to the printing process from OS
             0 MiB allocation reported by mallinfo(arena+hblkhd)
          1267 MiB available memory on the node where the printing process lives
------------------
     ethr =  5.92E-09,  avg # of iterations =  4.0

     negative rho (up, down):  3.779E-01 0.000E+00

     total cpu time spent up to now is        8.0 secs

     total energy              =      -2.06652871 Ry
     estimated scf accuracy    <       0.00000013 Ry

     iteration # 97     ecut=     5.00 Ry     beta= 0.70
     Davidson diagonalization with overlap

---- Real-time Memory Report at c_bands before calling an iterative solver
            54 MiB given to the printing process from OS
             0 MiB allocation reported by mallinfo(arena+hblkhd)
          1267 MiB available memory on the node where the printing process lives
------------------
     ethr =  5.92E-09,  avg # of iterations =  4.0

     negative rho (up, down):  3.780E-01 0.000E+00

     total cpu time spent up to now is        8.1 secs

     total energy              =      -2.06653816 Ry
     estimated scf accuracy    <       0.00000213 Ry

     iteration # 98     ecut=     5.00 Ry     beta= 0.70
     Davidson diagonalization with overlap

---- Real-time Memory Report at c_bands before calling an iterative solver
            54 MiB given to the printing process from OS
             0 MiB allocation reported by mallinfo(arena+hblkhd)
          1267 MiB available memory on the node where the printing process lives
------------------
     ethr =  5.92E-09,  avg # of iterations =  3.0

     negative rho (up, down):  3.781E-01 0.000E+00

     total cpu time spent up to now is        8.2 secs

     total energy              =      -2.06647740 Ry
     estimated scf accuracy    <       0.00000324 Ry

     iteration # 99     ecut=     5.00 Ry     beta= 0.70
     Davidson diagonalization with overlap

---- Real-time Memory Report at c_bands before calling an iterative solver
            54 MiB given to the printing process from OS
             0 MiB allocation reported by mallinfo(arena+hblkhd)
          1267 MiB available memory on the node where the printing process lives
------------------
     ethr =  5.92E-09,  avg # of iterations =  4.0

     negative rho (up, down):  3.783E-01 0.000E+00

     total cpu time spent up to now is        8.2 secs

     total energy              =      -2.06648448 Ry
     estimated scf accuracy    <       0.00000081 Ry

     iteration #100     ecut=     5.00 Ry     beta= 0.70
     Davidson diagonalization with overlap

---- Real-time Memory Report at c_bands before calling an iterative solver
            54 MiB given to the printing process from OS
             0 MiB allocation reported by mallinfo(arena+hblkhd)
          1267 MiB available memory on the node where the printing process lives
------------------
     ethr =  5.92E-09,  avg # of iterations =  3.0

     negative rho (up, down):  3.781E-01 0.000E+00

     total cpu time spent up to now is        8.3 secs

     total energy              =      -2.06647610 Ry
     estimated scf accuracy    <       0.00000096 Ry

     End of self-consistent calculation

     convergence NOT achieved after 100 iterations: stopping

     Writing config to output data dir ./.save/
     Message from routine punch:
     wavefunctions written to file

     init_run     :      0.07s CPU      0.08s WALL (       1 calls)
     electrons    :      8.18s CPU      8.22s WALL (       1 calls)

     Called by init_run:
     wfcinit      :      0.00s CPU      0.01s WALL (       1 calls)
     wfcinit:atom :      0.00s CPU      0.00s WALL (       1 calls)
     wfcinit:wfcr :      0.00s CPU      0.00s WALL (       1 calls)
     potinit      :      0.05s CPU      0.05s WALL (       1 calls)
     hinit0       :      0.00s CPU      0.01s WALL (       1 calls)

     Called by electrons:
     c_bands      :      2.26s CPU      2.28s WALL (     100 calls)
     sum_band     :      0.80s CPU      0.80s WALL (     100 calls)
     v_of_rho     :      3.97s CPU      3.98s WALL (     101 calls)
     v_h          :      0.20s CPU      0.20s WALL (     101 calls)
     v_xc         :      3.78s CPU      3.78s WALL (     101 calls)
     newd         :      0.25s CPU      0.25s WALL (     101 calls)
     mix_rho      :      0.86s CPU      0.86s WALL (     100 calls)

     Called by c_bands:
     init_us_2    :      0.03s CPU      0.03s WALL (     201 calls)
     init_us_2:cp :      0.03s CPU      0.03s WALL (     201 calls)
     cegterg      :      2.24s CPU      2.26s WALL (     100 calls)

     Called by sum_band:
     sum_band:wei :      0.00s CPU      0.00s WALL (     100 calls)
     sum_band:loo :      0.24s CPU      0.24s WALL (     100 calls)
     sum_band:buf :      0.00s CPU      0.00s WALL (     100 calls)
     sum_band:ini :      0.01s CPU      0.01s WALL (     100 calls)
     sum_band:cal :      0.00s CPU      0.00s WALL (     100 calls)
     sum_band:bec :      0.00s CPU      0.00s WALL (     100 calls)
     addusdens    :      0.07s CPU      0.07s WALL (     100 calls)
     addusd:skk   :      0.03s CPU      0.03s WALL (     100 calls)
     addusd:dgemm :      0.02s CPU      0.02s WALL (     100 calls)
     addusd:qvan2 :      0.02s CPU      0.02s WALL (     100 calls)

     Called by *egterg:
     cdiaghg      :      0.01s CPU      0.01s WALL (     604 calls)
     cegterg:over :      0.03s CPU      0.03s WALL (     504 calls)
     cegterg:upda :      0.03s CPU      0.03s WALL (     504 calls)
     cegterg:last :      0.05s CPU      0.05s WALL (     412 calls)
     h_psi        :      2.06s CPU      2.08s WALL (     605 calls)
     s_psi        :      0.01s CPU      0.01s WALL (     605 calls)
     g_psi        :      0.01s CPU      0.01s WALL (     504 calls)

     Called by h_psi:
     h_psi:calbec :      0.02s CPU      0.02s WALL (     605 calls)
     vloc_psi     :      2.02s CPU      2.04s WALL (     605 calls)
     add_vuspsi   :      0.01s CPU      0.01s WALL (     605 calls)

     General routines
     calbec       :      0.02s CPU      0.02s WALL (     705 calls)
     fft          :      1.71s CPU      1.71s WALL (    1111 calls)
     ffts         :      0.15s CPU      0.15s WALL (     100 calls)
     fftw         :      2.08s CPU      2.10s WALL (    2126 calls)
     davcio       :      0.00s CPU      0.00s WALL (      19 calls)


     PWSCF        :      8.28s CPU      8.33s WALL


   This run was terminated on:  22:14:33  28Feb2022            

=------------------------------------------------------------------------------=
   JOB DONE.
=------------------------------------------------------------------------------=
