
     Program PWSCF v.7.0 starts on 28Feb2022 at  3:10:40 

     This program is part of the open-source Quantum ESPRESSO suite
     for quantum simulation of materials; please cite
         "P. Giannozzi et al., J. Phys.:Condens. Matter 21 395502 (2009);
         "P. Giannozzi et al., J. Phys.:Condens. Matter 29 465901 (2017);
         "P. Giannozzi et al., J. Chem. Phys. 152 154105 (2020);
          URL http://www.quantum-espresso.org", 
     in publications or presentations arising from this work. More details at
     http://www.quantum-espresso.org/quote

     Serial version
     554 MiB available memory on the printing compute node when the environment starts

     Waiting for input...
     Reading input from standard input

     Current dimensions of program PWSCF are:
     Max number of different atomic species (ntypx) = 10
     Max number of k-points (npk) =  40000
     Max angular momentum in pseudopotentials (lmaxx) =  4

    ============================================================
    |  pseudopotential report for atomic species:  1           |
    |        pseudo potential version   7   3   2              |
    ------------------------------------------------------------
    |  hydrogen            PBE                  exchange-corr  |
    |  z =   1.    zv( 1) =   1.    exfact =   5.00000         |
    |  ifpcor =  0           atomic energy =  -0.91772 Ry      |
    |  index    orbital      occupation    energy              |
    |    1        100           1.00       -0.48               |
    |  rinner =  0.5000                                        |
    |    new generation scheme:                                |
    |    nbeta =  1     kkbeta =  271     rcloc =    0.6000    |
    |    ibeta    l     epsilon   rcut                         |
    |      1       0      -0.48   0.80                         |
    ============================================================

     IMPORTANT: XC functional enforced from input :
     Exchange-correlation= BLYP
                           (   1   3   1   3   0   0   0)
     Any further DFT definition will be discarded
     Please, verify this is what you really want


     G-vector sticks info
     --------------------
     sticks:   dense  smooth     PW     G-vecs:    dense   smooth      PW
     Sum        5721    5721   1565               326029   326029   45961

     Using Slab Decomposition



     bravais-lattice index     =            1
     lattice parameter (alat)  =      30.0000  a.u.
     unit-cell volume          =   27000.0000 (a.u.)^3
     number of atoms/cell      =            2
     number of atomic types    =            1
     number of electrons       =         2.00
     number of Kohn-Sham states=            2
     kinetic-energy cutoff     =      20.0000  Ry
     charge density cutoff     =      80.0000  Ry
     scf convergence threshold =      1.0E-08
     mixing beta               =       0.7000
     number of iterations used =            8  plain     mixing
     energy convergence thresh.=      1.0E-04
     force convergence thresh. =      1.0E-03
     Exchange-correlation= BLYP
                           (   1   3   1   3   0   0   0)
     nstep                     =           50


     celldm(1)=  30.000000  celldm(2)=   0.000000  celldm(3)=   0.000000
     celldm(4)=   0.000000  celldm(5)=   0.000000  celldm(6)=   0.000000

     crystal axes: (cart. coord. in units of alat)
               a(1) = (   1.000000   0.000000   0.000000 )  
               a(2) = (   0.000000   1.000000   0.000000 )  
               a(3) = (   0.000000   0.000000   1.000000 )  

     reciprocal axes: (cart. coord. in units 2 pi/alat)
               b(1) = (  1.000000  0.000000  0.000000 )  
               b(2) = (  0.000000  1.000000  0.000000 )  
               b(3) = (  0.000000  0.000000  1.000000 )  


     PseudoPot. # 1 for hy read from file:
     /root/q-e/pseudo/H_US.van
     MD5 check sum: a9a9bfe98ff56cf4de197d71fc46bb44
     Pseudo is Ultrasoft, Zval =  1.0
     Generated by Vanderbilt code, v. 7.3.2
     Using radial grid of  399 points,  1 beta functions with: 
                l(1) =   0
     Q(r) pseudized with  8 coefficients,  rinner =    0.500

     atomic species   valence    mass     pseudopotential
        H              1.00     1.00784     hy( 1.00)

      8 Sym. Ops. (no inversion) found


                                    s                        frac. trans.

      isym =  1     identity                                     

 cryst.   s( 1) = (     1          0          0      )
                  (     0          1          0      )
                  (     0          0          1      )

 cart.    s( 1) = (  1.0000000  0.0000000  0.0000000 )
                  (  0.0000000  1.0000000  0.0000000 )
                  (  0.0000000  0.0000000  1.0000000 )


      isym =  2     180 deg rotation - cart. axis [1,0,0]        

 cryst.   s( 2) = (     1          0          0      )
                  (     0         -1          0      )
                  (     0          0         -1      )

 cart.    s( 2) = (  1.0000000  0.0000000  0.0000000 )
                  (  0.0000000 -1.0000000  0.0000000 )
                  (  0.0000000  0.0000000 -1.0000000 )


      isym =  3      90 deg rotation - cart. axis [-1,0,0]       

 cryst.   s( 3) = (     1          0          0      )
                  (     0          0         -1      )
                  (     0          1          0      )

 cart.    s( 3) = (  1.0000000  0.0000000  0.0000000 )
                  (  0.0000000  0.0000000  1.0000000 )
                  (  0.0000000 -1.0000000  0.0000000 )


      isym =  4      90 deg rotation - cart. axis [1,0,0]        

 cryst.   s( 4) = (     1          0          0      )
                  (     0          0          1      )
                  (     0         -1          0      )

 cart.    s( 4) = (  1.0000000  0.0000000  0.0000000 )
                  (  0.0000000  0.0000000 -1.0000000 )
                  (  0.0000000  1.0000000  0.0000000 )


      isym =  5     inv. 180 deg rotation - cart. axis [0,0,1]   

 cryst.   s( 5) = (     1          0          0      )
                  (     0          1          0      )
                  (     0          0         -1      )

 cart.    s( 5) = (  1.0000000  0.0000000  0.0000000 )
                  (  0.0000000  1.0000000  0.0000000 )
                  (  0.0000000  0.0000000 -1.0000000 )


      isym =  6     inv. 180 deg rotation - cart. axis [0,1,0]   

 cryst.   s( 6) = (     1          0          0      )
                  (     0         -1          0      )
                  (     0          0          1      )

 cart.    s( 6) = (  1.0000000  0.0000000  0.0000000 )
                  (  0.0000000 -1.0000000  0.0000000 )
                  (  0.0000000  0.0000000  1.0000000 )


      isym =  7     inv. 180 deg rotation - cart. axis [0,1,1]   

 cryst.   s( 7) = (     1          0          0      )
                  (     0          0         -1      )
                  (     0         -1          0      )

 cart.    s( 7) = (  1.0000000  0.0000000  0.0000000 )
                  (  0.0000000  0.0000000 -1.0000000 )
                  (  0.0000000 -1.0000000  0.0000000 )


      isym =  8     inv. 180 deg rotation - cart. axis [0,1,-1]  

 cryst.   s( 8) = (     1          0          0      )
                  (     0          0          1      )
                  (     0          1          0      )

 cart.    s( 8) = (  1.0000000  0.0000000  0.0000000 )
                  (  0.0000000  0.0000000  1.0000000 )
                  (  0.0000000  1.0000000  0.0000000 )


     point group C_4v (4mm) 
     there are  5 classes
     the character table:

       E     2C4   C2    2s_v  2s_d 
A_1    1.00  1.00  1.00  1.00  1.00
A_2    1.00  1.00  1.00 -1.00 -1.00
B_1    1.00 -1.00  1.00  1.00 -1.00
B_2    1.00 -1.00  1.00 -1.00  1.00
E      2.00  0.00 -2.00  0.00  0.00

     the symmetry operations in each class and the name of the first element:

     E        1
          identity                                               
     2C4      3    4
           90 deg rotation - cart. axis [-1,0,0]                 
     C2       2
          180 deg rotation - cart. axis [1,0,0]                  
     2s_v     5    6
          inv. 180 deg rotation - cart. axis [0,0,1]             
     2s_d     7    8
          inv. 180 deg rotation - cart. axis [0,1,1]             

   Cartesian axes

     site n.     atom                  positions (alat units)
         1           H   tau(   1) = (   0.0000000   0.0000000   0.0000000  )
         2           H   tau(   2) = (   0.0453534   0.0000000   0.0000000  )

   Crystallographic axes

     site n.     atom                  positions (cryst. coord.)
         1           H   tau(   1) = (  0.0000000  0.0000000  0.0000000  )
         2           H   tau(   2) = (  0.0453534  0.0000000  0.0000000  )

     number of k points=     1
                       cart. coord. in units 2pi/alat
        k(    1) = (  -0.5000000  -0.5000000  -0.5000000), wk =   2.0000000

                       cryst. coord.
        k(    1) = (  -0.5000000  -0.5000000  -0.5000000), wk =   2.0000000

     Dense  grid:   326029 G-vectors     FFT dimensions: (  90,  90,  90)

     Dynamical RAM for                 wfc:       1.24 MB

     Dynamical RAM for     wfc (w. buffer):       1.24 MB

     Dynamical RAM for           str. fact:       4.97 MB

     Dynamical RAM for           local pot:       0.00 MB

     Dynamical RAM for          nlocal pot:       1.24 MB

     Dynamical RAM for                qrad:       0.01 MB

     Dynamical RAM for          rho,v,vnew:      31.61 MB

     Dynamical RAM for               rhoin:      10.54 MB

     Dynamical RAM for            rho*nmix:      79.60 MB

     Dynamical RAM for           G-vectors:      21.14 MB

     Dynamical RAM for          h,s,v(r/c):       0.00 MB

     Dynamical RAM for          <psi|beta>:       0.00 MB

     Dynamical RAM for                 psi:       2.49 MB

     Dynamical RAM for                hpsi:       2.49 MB

     Dynamical RAM for                spsi:       2.49 MB

     Dynamical RAM for      wfcinit/wfcrot:       2.49 MB

     Dynamical RAM for           addusdens:      29.85 MB

     Dynamical RAM for          addusforce:      42.29 MB

     Estimated static dynamical RAM per process >     108.52 MB

     Estimated max dynamical RAM per process >     230.40 MB

     Initial potential from superposition of free atoms

     starting charge       2.0000, renormalised to       2.0000

     negative rho (up, down):  5.373E-02 0.000E+00
     Starting wfcs are    2 randomized atomic wfcs

     total cpu time spent up to now is        0.6 secs

     Self-consistent Calculation

     iteration #  1     ecut=    20.00 Ry     beta= 0.70
     Davidson diagonalization with overlap

---- Real-time Memory Report at c_bands before calling an iterative solver
           195 MiB given to the printing process from OS
             0 MiB allocation reported by mallinfo(arena+hblkhd)
           428 MiB available memory on the node where the printing process lives
------------------
     ethr =  1.00E-02,  avg # of iterations =  5.0

     negative rho (up, down):  8.561E-02 0.000E+00

     total cpu time spent up to now is        1.3 secs

     total energy              =      -2.30637517 Ry
     estimated scf accuracy    <       0.13030153 Ry

     iteration #  2     ecut=    20.00 Ry     beta= 0.70
     Davidson diagonalization with overlap

---- Real-time Memory Report at c_bands before calling an iterative solver
           241 MiB given to the printing process from OS
             0 MiB allocation reported by mallinfo(arena+hblkhd)
           327 MiB available memory on the node where the printing process lives
------------------
     ethr =  6.52E-03,  avg # of iterations =  1.0

     negative rho (up, down):  9.277E-02 0.000E+00

     total cpu time spent up to now is        1.9 secs

     total energy              =      -2.31097930 Ry
     estimated scf accuracy    <       0.00144911 Ry

     iteration #  3     ecut=    20.00 Ry     beta= 0.70
     Davidson diagonalization with overlap

---- Real-time Memory Report at c_bands before calling an iterative solver
           251 MiB given to the printing process from OS
             0 MiB allocation reported by mallinfo(arena+hblkhd)
           316 MiB available memory on the node where the printing process lives
------------------
     ethr =  7.25E-05,  avg # of iterations =  8.0

     negative rho (up, down):  9.284E-02 0.000E+00

     total cpu time spent up to now is        2.7 secs

     total energy              =      -2.31130995 Ry
     estimated scf accuracy    <       0.00001465 Ry

     iteration #  4     ecut=    20.00 Ry     beta= 0.70
     Davidson diagonalization with overlap

---- Real-time Memory Report at c_bands before calling an iterative solver
           261 MiB given to the printing process from OS
             0 MiB allocation reported by mallinfo(arena+hblkhd)
           306 MiB available memory on the node where the printing process lives
------------------
     ethr =  7.33E-07,  avg # of iterations =  5.0

     negative rho (up, down):  9.303E-02 0.000E+00

     total cpu time spent up to now is        3.4 secs

     total energy              =      -2.31119412 Ry
     estimated scf accuracy    <       0.00000024 Ry

     iteration #  5     ecut=    20.00 Ry     beta= 0.70
     Davidson diagonalization with overlap

---- Real-time Memory Report at c_bands before calling an iterative solver
           271 MiB given to the printing process from OS
             0 MiB allocation reported by mallinfo(arena+hblkhd)
           296 MiB available memory on the node where the printing process lives
------------------
     ethr =  1.22E-08,  avg # of iterations =  3.0

     negative rho (up, down):  9.304E-02 0.000E+00

     total cpu time spent up to now is        4.2 secs

     total energy              =      -2.31118352 Ry
     estimated scf accuracy    <       0.00000005 Ry

     iteration #  6     ecut=    20.00 Ry     beta= 0.70
     Davidson diagonalization with overlap

---- Real-time Memory Report at c_bands before calling an iterative solver
           281 MiB given to the printing process from OS
             0 MiB allocation reported by mallinfo(arena+hblkhd)
           286 MiB available memory on the node where the printing process lives
------------------
     ethr =  2.61E-09,  avg # of iterations =  3.0

     negative rho (up, down):  9.304E-02 0.000E+00

     total cpu time spent up to now is        4.8 secs

     total energy              =      -2.31119191 Ry
     estimated scf accuracy    <       0.00000001 Ry

     iteration #  7     ecut=    20.00 Ry     beta= 0.70
     Davidson diagonalization with overlap

---- Real-time Memory Report at c_bands before calling an iterative solver
           291 MiB given to the printing process from OS
             0 MiB allocation reported by mallinfo(arena+hblkhd)
           277 MiB available memory on the node where the printing process lives
------------------
     ethr =  5.03E-10,  avg # of iterations =  3.0

     negative rho (up, down):  9.305E-02 0.000E+00

     total cpu time spent up to now is        5.5 secs

     End of self-consistent calculation

          k =-0.5000-0.5000-0.5000 ( 40800 PWs)   bands (ev):

   -10.6570  -1.3493

     occupation numbers 
     1.0000   0.0000

     highest occupied, lowest unoccupied level (ev):   -10.6570   -1.3493

!    total energy              =      -2.31117548 Ry
     estimated scf accuracy    <          3.7E-09 Ry

     The total energy is the sum of the following terms:
     one-electron contribution =      -4.28754904 Ry
     hartree contribution      =       2.29206231 Ry
     xc contribution           =      -1.40760717 Ry
     ewald contribution        =       1.09191843 Ry

     convergence has been achieved in   7 iterations

     Forces acting on atoms (cartesian axes, Ry/au):

     atom    1 type  1   force =    -0.04873816    0.00000000    0.00000000
     atom    2 type  1   force =     0.04873816    0.00000000    0.00000000
     The non-local contrib.  to forces
     atom    1 type  1   force =     0.10008389    0.00000000    0.00000000
     atom    2 type  1   force =    -0.10045563    0.00000000    0.00000000
     The ionic contribution  to forces
     atom    1 type  1   force =    -1.07993220   -0.00000000   -0.00000000
     atom    2 type  1   force =     1.07993220    0.00000000   -0.00000000
     The local contribution  to forces
     atom    1 type  1   force =     0.93093573    0.00000000    0.00000000
     atom    2 type  1   force =    -0.93096731    0.00000000    0.00000000
     The core correction contribution to forces
     atom    1 type  1   force =     0.00000000    0.00000000    0.00000000
     atom    2 type  1   force =     0.00000000    0.00000000    0.00000000
     The Hubbard contrib.    to forces
     atom    1 type  1   force =     0.00000000    0.00000000    0.00000000
     atom    2 type  1   force =     0.00000000    0.00000000    0.00000000
     The SCF correction term to forces
     atom    1 type  1   force =    -0.00009277   -0.00000000    0.00000000
     atom    2 type  1   force =    -0.00003828   -0.00000000    0.00000000

     Total force =     0.068926     Total SCF correction =     0.000100

     BFGS Geometry Optimization
     Energy error            =      0.0E+00 Ry
     Gradient error          =      4.9E-02 Ry/Bohr

     number of scf cycles    =   1
     number of bfgs steps    =   0

     energy             new  =      -2.3111754824 Ry

     new trust radius        =       0.0487381580 bohr
     new conv_thr            =       0.0000000100 Ry


ATOMIC_POSITIONS (angstrom)
H            -0.0257911225        0.0000000000        0.0000000000
H             0.7457911225        0.0000000000        0.0000000000



     Writing config-only to output data dir ./.save/
     NEW-OLD atomic charge density approx. for the potential

     negative rho (up, down):  9.435E-02 0.000E+00

     total cpu time spent up to now is        6.1 secs

     Self-consistent Calculation

     iteration #  1     ecut=    20.00 Ry     beta= 0.70
     Davidson diagonalization with overlap

---- Real-time Memory Report at c_bands before calling an iterative solver
           296 MiB given to the printing process from OS
             0 MiB allocation reported by mallinfo(arena+hblkhd)
           418 MiB available memory on the node where the printing process lives
------------------
     ethr =  1.00E-06,  avg # of iterations =  4.0

     negative rho (up, down):  9.112E-02 0.000E+00

     total cpu time spent up to now is        6.9 secs

     total energy              =      -2.31284046 Ry
     estimated scf accuracy    <       0.00074463 Ry

     iteration #  2     ecut=    20.00 Ry     beta= 0.70
     Davidson diagonalization with overlap

---- Real-time Memory Report at c_bands before calling an iterative solver
           296 MiB given to the printing process from OS
             0 MiB allocation reported by mallinfo(arena+hblkhd)
           321 MiB available memory on the node where the printing process lives
------------------
     ethr =  3.72E-05,  avg # of iterations =  1.0

     negative rho (up, down):  9.066E-02 0.000E+00

     total cpu time spent up to now is        7.5 secs

     total energy              =      -2.31326148 Ry
     estimated scf accuracy    <       0.00000886 Ry

     iteration #  3     ecut=    20.00 Ry     beta= 0.70
     Davidson diagonalization with overlap

---- Real-time Memory Report at c_bands before calling an iterative solver
           296 MiB given to the printing process from OS
             0 MiB allocation reported by mallinfo(arena+hblkhd)
           311 MiB available memory on the node where the printing process lives
------------------
     ethr =  4.43E-07,  avg # of iterations =  3.0

     negative rho (up, down):  9.068E-02 0.000E+00

     total cpu time spent up to now is        8.1 secs

     total energy              =      -2.31326782 Ry
     estimated scf accuracy    <       0.00000052 Ry

     iteration #  4     ecut=    20.00 Ry     beta= 0.70
     Davidson diagonalization with overlap

---- Real-time Memory Report at c_bands before calling an iterative solver
           296 MiB given to the printing process from OS
             0 MiB allocation reported by mallinfo(arena+hblkhd)
           301 MiB available memory on the node where the printing process lives
------------------
     ethr =  2.61E-08,  avg # of iterations =  2.0

     negative rho (up, down):  9.068E-02 0.000E+00

     total cpu time spent up to now is        8.7 secs

     End of self-consistent calculation

          k =-0.5000-0.5000-0.5000 ( 40800 PWs)   bands (ev):

   -10.3981  -1.3970

     occupation numbers 
     1.0000   0.0000

     highest occupied, lowest unoccupied level (ev):   -10.3981   -1.3970

!    total energy              =      -2.31327576 Ry
     estimated scf accuracy    <          5.7E-09 Ry

     The total energy is the sum of the following terms:
     one-electron contribution =      -4.15489663 Ry
     hartree contribution      =       2.22310651 Ry
     xc contribution           =      -1.37517795 Ry
     ewald contribution        =       0.99369231 Ry

     convergence has been achieved in   4 iterations

     Forces acting on atoms (cartesian axes, Ry/au):

     atom    1 type  1   force =     0.03051611    0.00000000    0.00000000
     atom    2 type  1   force =    -0.03051611    0.00000000    0.00000000
     The non-local contrib.  to forces
     atom    1 type  1   force =     0.09323159    0.00000000    0.00000000
     atom    2 type  1   force =    -0.09286753    0.00000000    0.00000000
     The ionic contribution  to forces
     atom    1 type  1   force =    -0.94028051   -0.00000000   -0.00000000
     atom    2 type  1   force =     0.94028051   -0.00000000   -0.00000000
     The local contribution  to forces
     atom    1 type  1   force =     0.87763951    0.00000000    0.00000000
     atom    2 type  1   force =    -0.87772775    0.00000000    0.00000000
     The core correction contribution to forces
     atom    1 type  1   force =     0.00000000    0.00000000    0.00000000
     atom    2 type  1   force =     0.00000000    0.00000000    0.00000000
     The Hubbard contrib.    to forces
     atom    1 type  1   force =     0.00000000    0.00000000    0.00000000
     atom    2 type  1   force =     0.00000000    0.00000000    0.00000000
     The SCF correction term to forces
     atom    1 type  1   force =     0.00011300    0.00000000    0.00000000
     atom    2 type  1   force =    -0.00001388   -0.00000000    0.00000000

     Total force =     0.043156     Total SCF correction =     0.000114
     Energy error            =      2.1E-03 Ry
     Gradient error          =      3.1E-02 Ry/Bohr

     number of scf cycles    =   2
     number of bfgs steps    =   1

     energy             old  =      -2.3111754824 Ry
     energy             new  =      -2.3132757636 Ry

     CASE: energy            _new < energy            _old

     new trust radius        =       0.0187661693 bohr
     new conv_thr            =       0.0000000021 Ry


ATOMIC_POSITIONS (angstrom)
H            -0.0158604934        0.0000000000        0.0000000000
H             0.7358604934        0.0000000000        0.0000000000



     Writing config-only to output data dir ./.save/
     NEW-OLD atomic charge density approx. for the potential

     negative rho (up, down):  8.986E-02 0.000E+00

     total cpu time spent up to now is        9.3 secs

     Self-consistent Calculation

     iteration #  1     ecut=    20.00 Ry     beta= 0.70
     Davidson diagonalization with overlap

---- Real-time Memory Report at c_bands before calling an iterative solver
           296 MiB given to the printing process from OS
             0 MiB allocation reported by mallinfo(arena+hblkhd)
           416 MiB available memory on the node where the printing process lives
------------------
     ethr =  1.00E-06,  avg # of iterations =  3.0

     negative rho (up, down):  9.126E-02 0.000E+00

     total cpu time spent up to now is       10.0 secs

     total energy              =      -2.31356520 Ry
     estimated scf accuracy    <       0.00009968 Ry

     iteration #  2     ecut=    20.00 Ry     beta= 0.70
     Davidson diagonalization with overlap

---- Real-time Memory Report at c_bands before calling an iterative solver
           296 MiB given to the printing process from OS
             0 MiB allocation reported by mallinfo(arena+hblkhd)
           319 MiB available memory on the node where the printing process lives
------------------
     ethr =  4.98E-06,  avg # of iterations =  1.0

     negative rho (up, down):  9.163E-02 0.000E+00

     total cpu time spent up to now is       10.6 secs

     total energy              =      -2.31334516 Ry
     estimated scf accuracy    <       0.00000204 Ry

     iteration #  3     ecut=    20.00 Ry     beta= 0.70
     Davidson diagonalization with overlap

---- Real-time Memory Report at c_bands before calling an iterative solver
           296 MiB given to the printing process from OS
             0 MiB allocation reported by mallinfo(arena+hblkhd)
           309 MiB available memory on the node where the printing process lives
------------------
     ethr =  1.02E-07,  avg # of iterations =  2.0

     negative rho (up, down):  9.163E-02 0.000E+00

     total cpu time spent up to now is       11.3 secs

     total energy              =      -2.31333020 Ry
     estimated scf accuracy    <       0.00000011 Ry

     iteration #  4     ecut=    20.00 Ry     beta= 0.70
     Davidson diagonalization with overlap

---- Real-time Memory Report at c_bands before calling an iterative solver
           296 MiB given to the printing process from OS
             0 MiB allocation reported by mallinfo(arena+hblkhd)
           299 MiB available memory on the node where the printing process lives
------------------
     ethr =  5.61E-09,  avg # of iterations =  2.0

     negative rho (up, down):  9.165E-02 0.000E+00

     total cpu time spent up to now is       11.9 secs

     total energy              =      -2.31331347 Ry
     estimated scf accuracy    <       0.00000003 Ry

     iteration #  5     ecut=    20.00 Ry     beta= 0.70
     Davidson diagonalization with overlap

---- Real-time Memory Report at c_bands before calling an iterative solver
           296 MiB given to the printing process from OS
             0 MiB allocation reported by mallinfo(arena+hblkhd)
           289 MiB available memory on the node where the printing process lives
------------------
     ethr =  1.56E-09,  avg # of iterations =  3.0

     negative rho (up, down):  9.165E-02 0.000E+00

     total cpu time spent up to now is       12.5 secs

     total energy              =      -2.31331409 Ry
     estimated scf accuracy    <          2.8E-09 Ry

     iteration #  6     ecut=    20.00 Ry     beta= 0.70
     Davidson diagonalization with overlap

---- Real-time Memory Report at c_bands before calling an iterative solver
           296 MiB given to the printing process from OS
             0 MiB allocation reported by mallinfo(arena+hblkhd)
           279 MiB available memory on the node where the printing process lives
------------------
     ethr =  1.42E-10,  avg # of iterations =  2.0

     negative rho (up, down):  9.165E-02 0.000E+00

     total cpu time spent up to now is       13.2 secs

     total energy              =      -2.31331694 Ry
     estimated scf accuracy    <          3.3E-09 Ry

     iteration #  7     ecut=    20.00 Ry     beta= 0.70
     Davidson diagonalization with overlap

---- Real-time Memory Report at c_bands before calling an iterative solver
           297 MiB given to the printing process from OS
             0 MiB allocation reported by mallinfo(arena+hblkhd)
           269 MiB available memory on the node where the printing process lives
------------------
     ethr =  1.42E-10,  avg # of iterations =  3.0

     negative rho (up, down):  9.165E-02 0.000E+00

     total cpu time spent up to now is       13.8 secs

     total energy              =      -2.31331024 Ry
     estimated scf accuracy    <          2.3E-09 Ry

     iteration #  8     ecut=    20.00 Ry     beta= 0.70
     Davidson diagonalization with overlap

---- Real-time Memory Report at c_bands before calling an iterative solver
           307 MiB given to the printing process from OS
             0 MiB allocation reported by mallinfo(arena+hblkhd)
           259 MiB available memory on the node where the printing process lives
------------------
     ethr =  1.13E-10,  avg # of iterations =  4.0

     negative rho (up, down):  9.165E-02 0.000E+00

     total cpu time spent up to now is       14.5 secs

     total energy              =      -2.31331063 Ry
     estimated scf accuracy    <          9.1E-09 Ry

     iteration #  9     ecut=    20.00 Ry     beta= 0.70
     Davidson diagonalization with overlap

---- Real-time Memory Report at c_bands before calling an iterative solver
           317 MiB given to the printing process from OS
             0 MiB allocation reported by mallinfo(arena+hblkhd)
           249 MiB available memory on the node where the printing process lives
------------------
     ethr =  1.13E-10,  avg # of iterations =  1.0

     negative rho (up, down):  9.165E-02 0.000E+00

     total cpu time spent up to now is       15.2 secs

     total energy              =      -2.31331046 Ry
     estimated scf accuracy    <          9.1E-09 Ry

     iteration # 10     ecut=    20.00 Ry     beta= 0.70
     Davidson diagonalization with overlap

---- Real-time Memory Report at c_bands before calling an iterative solver
           327 MiB given to the printing process from OS
             0 MiB allocation reported by mallinfo(arena+hblkhd)
           239 MiB available memory on the node where the printing process lives
------------------
     ethr =  1.13E-10,  avg # of iterations =  3.0

     negative rho (up, down):  9.167E-02 0.000E+00

     total cpu time spent up to now is       15.8 secs

     total energy              =      -2.31331179 Ry
     estimated scf accuracy    <          6.8E-09 Ry

     iteration # 11     ecut=    20.00 Ry     beta= 0.70
     Davidson diagonalization with overlap

---- Real-time Memory Report at c_bands before calling an iterative solver
           327 MiB given to the printing process from OS
             0 MiB allocation reported by mallinfo(arena+hblkhd)
           239 MiB available memory on the node where the printing process lives
------------------
     ethr =  1.13E-10,  avg # of iterations =  4.0

     negative rho (up, down):  9.165E-02 0.000E+00

     total cpu time spent up to now is       16.5 secs

     total energy              =      -2.31331501 Ry
     estimated scf accuracy    <          2.7E-09 Ry

     iteration # 12     ecut=    20.00 Ry     beta= 0.70
     Davidson diagonalization with overlap

---- Real-time Memory Report at c_bands before calling an iterative solver
           327 MiB given to the printing process from OS
             0 MiB allocation reported by mallinfo(arena+hblkhd)
           239 MiB available memory on the node where the printing process lives
------------------
     ethr =  1.13E-10,  avg # of iterations =  3.0

     negative rho (up, down):  9.165E-02 0.000E+00

     total cpu time spent up to now is       17.1 secs

     End of self-consistent calculation

          k =-0.5000-0.5000-0.5000 ( 40800 PWs)   bands (ev):

   -10.4953  -1.3851

     occupation numbers 
     1.0000   0.0000

     highest occupied, lowest unoccupied level (ev):   -10.4953   -1.3851

!    total energy              =      -2.31332533 Ry
     estimated scf accuracy    <          1.3E-09 Ry

     The total energy is the sum of the following terms:
     one-electron contribution =      -4.20508657 Ry
     hartree contribution      =       2.24928863 Ry
     xc contribution           =      -1.38744371 Ry
     ewald contribution        =       1.02991633 Ry

     convergence has been achieved in  12 iterations

     Forces acting on atoms (cartesian axes, Ry/au):

     atom    1 type  1   force =     0.00178498    0.00000000    0.00000000
     atom    2 type  1   force =    -0.00178498    0.00000000    0.00000000
     The non-local contrib.  to forces
     atom    1 type  1   force =     0.09407959    0.00000000    0.00000000
     atom    2 type  1   force =    -0.09448496    0.00000000    0.00000000
     The ionic contribution  to forces
     atom    1 type  1   force =    -0.99065957   -0.00000000   -0.00000000
     atom    2 type  1   force =     0.99065957    0.00000000   -0.00000000
     The local contribution  to forces
     atom    1 type  1   force =     0.89808771    0.00000000    0.00000000
     atom    2 type  1   force =    -0.89812989    0.00000000    0.00000000
     The core correction contribution to forces
     atom    1 type  1   force =     0.00000000    0.00000000    0.00000000
     atom    2 type  1   force =     0.00000000    0.00000000    0.00000000
     The Hubbard contrib.    to forces
     atom    1 type  1   force =     0.00000000    0.00000000    0.00000000
     atom    2 type  1   force =     0.00000000    0.00000000    0.00000000
     The SCF correction term to forces
     atom    1 type  1   force =     0.00012824   -0.00000000    0.00000000
     atom    2 type  1   force =     0.00002130    0.00000000    0.00000000

     Total force =     0.002524     Total SCF correction =     0.000130
     Energy error            =      5.0E-05 Ry
     Gradient error          =      1.8E-03 Ry/Bohr

     number of scf cycles    =   3
     number of bfgs steps    =   2

     energy             old  =      -2.3132757636 Ry
     energy             new  =      -2.3133253318 Ry

     CASE: energy            _new < energy            _old

     new trust radius        =       0.0011658875 bohr
     new conv_thr            =            1.0E-10 Ry


ATOMIC_POSITIONS (angstrom)
H            -0.0152435323        0.0000000000        0.0000000000
H             0.7352435323        0.0000000000        0.0000000000



     Writing config-only to output data dir ./.save/
     NEW-OLD atomic charge density approx. for the potential

     negative rho (up, down):  9.160E-02 0.000E+00

     total cpu time spent up to now is       17.8 secs

     Self-consistent Calculation

     iteration #  1     ecut=    20.00 Ry     beta= 0.70
     Davidson diagonalization with overlap

---- Real-time Memory Report at c_bands before calling an iterative solver
           327 MiB given to the printing process from OS
             0 MiB allocation reported by mallinfo(arena+hblkhd)
           416 MiB available memory on the node where the printing process lives
------------------
     ethr =  1.00E-06,  avg # of iterations =  2.0

     Threshold (ethr) on eigenvalues was too large:
     Diagonalizing with lowered threshold

     Davidson diagonalization with overlap

---- Real-time Memory Report at c_bands before calling an iterative solver
           327 MiB given to the printing process from OS
             0 MiB allocation reported by mallinfo(arena+hblkhd)
           400 MiB available memory on the node where the printing process lives
------------------
     ethr =  1.58E-08,  avg # of iterations =  1.0

     negative rho (up, down):  9.168E-02 0.000E+00

     total cpu time spent up to now is       18.6 secs

     total energy              =      -2.31330734 Ry
     estimated scf accuracy    <       0.00000035 Ry

     iteration #  2     ecut=    20.00 Ry     beta= 0.70
     Davidson diagonalization with overlap

---- Real-time Memory Report at c_bands before calling an iterative solver
           327 MiB given to the printing process from OS
             0 MiB allocation reported by mallinfo(arena+hblkhd)
           319 MiB available memory on the node where the printing process lives
------------------
     ethr =  1.77E-08,  avg # of iterations =  2.0

     negative rho (up, down):  9.172E-02 0.000E+00

     total cpu time spent up to now is       19.2 secs

     total energy              =      -2.31327133 Ry
     estimated scf accuracy    <       0.00000003 Ry

     iteration #  3     ecut=    20.00 Ry     beta= 0.70
     Davidson diagonalization with overlap

---- Real-time Memory Report at c_bands before calling an iterative solver
           327 MiB given to the printing process from OS
             0 MiB allocation reported by mallinfo(arena+hblkhd)
           309 MiB available memory on the node where the printing process lives
------------------
     ethr =  1.39E-09,  avg # of iterations =  3.0

     negative rho (up, down):  9.171E-02 0.000E+00

     total cpu time spent up to now is       19.9 secs

     total energy              =      -2.31327919 Ry
     estimated scf accuracy    <       0.00000002 Ry

     iteration #  4     ecut=    20.00 Ry     beta= 0.70
     Davidson diagonalization with overlap

---- Real-time Memory Report at c_bands before calling an iterative solver
           327 MiB given to the printing process from OS
             0 MiB allocation reported by mallinfo(arena+hblkhd)
           299 MiB available memory on the node where the printing process lives
------------------
     ethr =  1.03E-09,  avg # of iterations =  2.0

     negative rho (up, down):  9.170E-02 0.000E+00

     total cpu time spent up to now is       20.5 secs

     total energy              =      -2.31328466 Ry
     estimated scf accuracy    <          6.1E-09 Ry

     iteration #  5     ecut=    20.00 Ry     beta= 0.70
     Davidson diagonalization with overlap

---- Real-time Memory Report at c_bands before calling an iterative solver
           327 MiB given to the printing process from OS
             0 MiB allocation reported by mallinfo(arena+hblkhd)
           289 MiB available memory on the node where the printing process lives
------------------
     ethr =  3.05E-10,  avg # of iterations =  3.0

     negative rho (up, down):  9.170E-02 0.000E+00

     total cpu time spent up to now is       21.1 secs

     total energy              =      -2.31327882 Ry
     estimated scf accuracy    <          6.5E-10 Ry

     iteration #  6     ecut=    20.00 Ry     beta= 0.70
     Davidson diagonalization with overlap

---- Real-time Memory Report at c_bands before calling an iterative solver
           327 MiB given to the printing process from OS
             0 MiB allocation reported by mallinfo(arena+hblkhd)
           279 MiB available memory on the node where the printing process lives
------------------
     ethr =  3.26E-11,  avg # of iterations =  4.0

     negative rho (up, down):  9.170E-02 0.000E+00

     total cpu time spent up to now is       21.8 secs

     total energy              =      -2.31328452 Ry
     estimated scf accuracy    <          1.3E-09 Ry

     iteration #  7     ecut=    20.00 Ry     beta= 0.70
     Davidson diagonalization with overlap

---- Real-time Memory Report at c_bands before calling an iterative solver
           327 MiB given to the printing process from OS
             0 MiB allocation reported by mallinfo(arena+hblkhd)
           269 MiB available memory on the node where the printing process lives
------------------
     ethr =  3.26E-11,  avg # of iterations =  4.0

     negative rho (up, down):  9.170E-02 0.000E+00

     total cpu time spent up to now is       22.5 secs

     total energy              =      -2.31328478 Ry
     estimated scf accuracy    <          3.3E-10 Ry

     iteration #  8     ecut=    20.00 Ry     beta= 0.70
     Davidson diagonalization with overlap

---- Real-time Memory Report at c_bands before calling an iterative solver
           327 MiB given to the printing process from OS
             0 MiB allocation reported by mallinfo(arena+hblkhd)
           259 MiB available memory on the node where the printing process lives
------------------
     ethr =  1.64E-11,  avg # of iterations =  5.0

     negative rho (up, down):  9.170E-02 0.000E+00

     total cpu time spent up to now is       23.2 secs

     total energy              =      -2.31328510 Ry
     estimated scf accuracy    <          5.2E-09 Ry

     iteration #  9     ecut=    20.00 Ry     beta= 0.70
     Davidson diagonalization with overlap

---- Real-time Memory Report at c_bands before calling an iterative solver
           327 MiB given to the printing process from OS
             0 MiB allocation reported by mallinfo(arena+hblkhd)
           249 MiB available memory on the node where the printing process lives
------------------
     ethr =  1.64E-11,  avg # of iterations =  2.0

     negative rho (up, down):  9.170E-02 0.000E+00

     total cpu time spent up to now is       23.9 secs

     total energy              =      -2.31328947 Ry
     estimated scf accuracy    <          5.2E-09 Ry

     iteration # 10     ecut=    20.00 Ry     beta= 0.70
     Davidson diagonalization with overlap

---- Real-time Memory Report at c_bands before calling an iterative solver
           327 MiB given to the printing process from OS
             0 MiB allocation reported by mallinfo(arena+hblkhd)
           239 MiB available memory on the node where the printing process lives
------------------
     ethr =  1.64E-11,  avg # of iterations =  5.0

     negative rho (up, down):  9.170E-02 0.000E+00

     total cpu time spent up to now is       24.6 secs

     total energy              =      -2.31327880 Ry
     estimated scf accuracy    <          6.9E-09 Ry

     iteration # 11     ecut=    20.00 Ry     beta= 0.70
     Davidson diagonalization with overlap

---- Real-time Memory Report at c_bands before calling an iterative solver
           327 MiB given to the printing process from OS
             0 MiB allocation reported by mallinfo(arena+hblkhd)
           239 MiB available memory on the node where the printing process lives
------------------
     ethr =  1.64E-11,  avg # of iterations =  5.0

     negative rho (up, down):  9.170E-02 0.000E+00

     total cpu time spent up to now is       25.3 secs

     total energy              =      -2.31327772 Ry
     estimated scf accuracy    <          1.1E-09 Ry

     iteration # 12     ecut=    20.00 Ry     beta= 0.70
     Davidson diagonalization with overlap

---- Real-time Memory Report at c_bands before calling an iterative solver
           327 MiB given to the printing process from OS
             0 MiB allocation reported by mallinfo(arena+hblkhd)
           239 MiB available memory on the node where the printing process lives
------------------
     ethr =  1.64E-11,  avg # of iterations =  4.0

     negative rho (up, down):  9.170E-02 0.000E+00

     total cpu time spent up to now is       26.0 secs

     total energy              =      -2.31328767 Ry
     estimated scf accuracy    <          5.3E-09 Ry

     iteration # 13     ecut=    20.00 Ry     beta= 0.70
     Davidson diagonalization with overlap

---- Real-time Memory Report at c_bands before calling an iterative solver
           327 MiB given to the printing process from OS
             0 MiB allocation reported by mallinfo(arena+hblkhd)
           239 MiB available memory on the node where the printing process lives
------------------
     ethr =  1.64E-11,  avg # of iterations =  5.0

     negative rho (up, down):  9.170E-02 0.000E+00

     total cpu time spent up to now is       26.8 secs

     total energy              =      -2.31328899 Ry
     estimated scf accuracy    <          4.0E-09 Ry

     iteration # 14     ecut=    20.00 Ry     beta= 0.70
     Davidson diagonalization with overlap

---- Real-time Memory Report at c_bands before calling an iterative solver
           327 MiB given to the printing process from OS
             0 MiB allocation reported by mallinfo(arena+hblkhd)
           239 MiB available memory on the node where the printing process lives
------------------
     ethr =  1.64E-11,  avg # of iterations =  2.0

     negative rho (up, down):  9.170E-02 0.000E+00

     total cpu time spent up to now is       27.4 secs

     total energy              =      -2.31328899 Ry
     estimated scf accuracy    <          4.6E-09 Ry

     iteration # 15     ecut=    20.00 Ry     beta= 0.70
     Davidson diagonalization with overlap

---- Real-time Memory Report at c_bands before calling an iterative solver
           327 MiB given to the printing process from OS
             0 MiB allocation reported by mallinfo(arena+hblkhd)
           239 MiB available memory on the node where the printing process lives
------------------
     ethr =  1.64E-11,  avg # of iterations =  2.0

     negative rho (up, down):  9.170E-02 0.000E+00

     total cpu time spent up to now is       28.1 secs

     total energy              =      -2.31327898 Ry
     estimated scf accuracy    <          5.2E-09 Ry

     iteration # 16     ecut=    20.00 Ry     beta= 0.70
     Davidson diagonalization with overlap

---- Real-time Memory Report at c_bands before calling an iterative solver
           327 MiB given to the printing process from OS
             0 MiB allocation reported by mallinfo(arena+hblkhd)
           239 MiB available memory on the node where the printing process lives
------------------
     ethr =  1.64E-11,  avg # of iterations =  5.0

     negative rho (up, down):  9.170E-02 0.000E+00

     total cpu time spent up to now is       28.8 secs

     total energy              =      -2.31328645 Ry
     estimated scf accuracy    <          9.9E-10 Ry

     iteration # 17     ecut=    20.00 Ry     beta= 0.70
     Davidson diagonalization with overlap

---- Real-time Memory Report at c_bands before calling an iterative solver
           327 MiB given to the printing process from OS
             0 MiB allocation reported by mallinfo(arena+hblkhd)
           239 MiB available memory on the node where the printing process lives
------------------
     ethr =  1.64E-11,  avg # of iterations =  4.0

     negative rho (up, down):  9.170E-02 0.000E+00

     total cpu time spent up to now is       29.5 secs

     total energy              =      -2.31328522 Ry
     estimated scf accuracy    <          3.7E-09 Ry

     iteration # 18     ecut=    20.00 Ry     beta= 0.70
     Davidson diagonalization with overlap

---- Real-time Memory Report at c_bands before calling an iterative solver
           327 MiB given to the printing process from OS
             0 MiB allocation reported by mallinfo(arena+hblkhd)
           239 MiB available memory on the node where the printing process lives
------------------
     ethr =  1.64E-11,  avg # of iterations =  4.0

     negative rho (up, down):  9.170E-02 0.000E+00

     total cpu time spent up to now is       30.2 secs

     total energy              =      -2.31327883 Ry
     estimated scf accuracy    <          4.2E-10 Ry

     iteration # 19     ecut=    20.00 Ry     beta= 0.70
     Davidson diagonalization with overlap

---- Real-time Memory Report at c_bands before calling an iterative solver
           327 MiB given to the printing process from OS
             0 MiB allocation reported by mallinfo(arena+hblkhd)
           239 MiB available memory on the node where the printing process lives
------------------
     ethr =  1.64E-11,  avg # of iterations =  4.0

     negative rho (up, down):  9.170E-02 0.000E+00

     total cpu time spent up to now is       30.9 secs

     total energy              =      -2.31328493 Ry
     estimated scf accuracy    <          1.2E-09 Ry

     iteration # 20     ecut=    20.00 Ry     beta= 0.70
     Davidson diagonalization with overlap

---- Real-time Memory Report at c_bands before calling an iterative solver
           327 MiB given to the printing process from OS
             0 MiB allocation reported by mallinfo(arena+hblkhd)
           239 MiB available memory on the node where the printing process lives
------------------
     ethr =  1.64E-11,  avg # of iterations =  4.0

     negative rho (up, down):  9.170E-02 0.000E+00

     total cpu time spent up to now is       31.6 secs

     total energy              =      -2.31328507 Ry
     estimated scf accuracy    <          4.1E-10 Ry

     iteration # 21     ecut=    20.00 Ry     beta= 0.70
     Davidson diagonalization with overlap

---- Real-time Memory Report at c_bands before calling an iterative solver
           327 MiB given to the printing process from OS
             0 MiB allocation reported by mallinfo(arena+hblkhd)
           239 MiB available memory on the node where the printing process lives
------------------
     ethr =  1.64E-11,  avg # of iterations =  3.0

     negative rho (up, down):  9.170E-02 0.000E+00

     total cpu time spent up to now is       32.3 secs

     total energy              =      -2.31328505 Ry
     estimated scf accuracy    <          4.7E-10 Ry

     iteration # 22     ecut=    20.00 Ry     beta= 0.70
     Davidson diagonalization with overlap

---- Real-time Memory Report at c_bands before calling an iterative solver
           327 MiB given to the printing process from OS
             0 MiB allocation reported by mallinfo(arena+hblkhd)
           239 MiB available memory on the node where the printing process lives
------------------
     ethr =  1.64E-11,  avg # of iterations =  2.0

     negative rho (up, down):  9.170E-02 0.000E+00

     total cpu time spent up to now is       32.9 secs

     total energy              =      -2.31327570 Ry
     estimated scf accuracy    <          4.8E-10 Ry

     iteration # 23     ecut=    20.00 Ry     beta= 0.70
     Davidson diagonalization with overlap

---- Real-time Memory Report at c_bands before calling an iterative solver
           327 MiB given to the printing process from OS
             0 MiB allocation reported by mallinfo(arena+hblkhd)
           239 MiB available memory on the node where the printing process lives
------------------
     ethr =  1.64E-11,  avg # of iterations =  4.0

     negative rho (up, down):  9.169E-02 0.000E+00

     total cpu time spent up to now is       33.7 secs

     total energy              =      -2.31329248 Ry
     estimated scf accuracy    <          4.4E-09 Ry

     iteration # 24     ecut=    20.00 Ry     beta= 0.70
     Davidson diagonalization with overlap

---- Real-time Memory Report at c_bands before calling an iterative solver
           327 MiB given to the printing process from OS
             0 MiB allocation reported by mallinfo(arena+hblkhd)
           239 MiB available memory on the node where the printing process lives
------------------
     ethr =  1.64E-11,  avg # of iterations =  5.0

     negative rho (up, down):  9.171E-02 0.000E+00

     total cpu time spent up to now is       34.4 secs

     total energy              =      -2.31327424 Ry
     estimated scf accuracy    <       0.00000001 Ry

     iteration # 25     ecut=    20.00 Ry     beta= 0.70
     Davidson diagonalization with overlap

---- Real-time Memory Report at c_bands before calling an iterative solver
           327 MiB given to the printing process from OS
             0 MiB allocation reported by mallinfo(arena+hblkhd)
           239 MiB available memory on the node where the printing process lives
------------------
     ethr =  1.64E-11,  avg # of iterations =  5.0

     negative rho (up, down):  9.170E-02 0.000E+00

     total cpu time spent up to now is       35.1 secs

     total energy              =      -2.31328096 Ry
     estimated scf accuracy    <          4.8E-09 Ry

     iteration # 26     ecut=    20.00 Ry     beta= 0.70
     Davidson diagonalization with overlap

---- Real-time Memory Report at c_bands before calling an iterative solver
           327 MiB given to the printing process from OS
             0 MiB allocation reported by mallinfo(arena+hblkhd)
           239 MiB available memory on the node where the printing process lives
------------------
     ethr =  1.64E-11,  avg # of iterations =  4.0

     negative rho (up, down):  9.170E-02 0.000E+00

     total cpu time spent up to now is       35.8 secs

     total energy              =      -2.31328007 Ry
     estimated scf accuracy    <          3.6E-09 Ry

     iteration # 27     ecut=    20.00 Ry     beta= 0.70
     Davidson diagonalization with overlap

---- Real-time Memory Report at c_bands before calling an iterative solver
           327 MiB given to the printing process from OS
             0 MiB allocation reported by mallinfo(arena+hblkhd)
           239 MiB available memory on the node where the printing process lives
------------------
     ethr =  1.64E-11,  avg # of iterations =  4.0

     negative rho (up, down):  9.170E-02 0.000E+00

     total cpu time spent up to now is       36.5 secs

     total energy              =      -2.31327989 Ry
     estimated scf accuracy    <          1.3E-09 Ry

     iteration # 28     ecut=    20.00 Ry     beta= 0.70
     Davidson diagonalization with overlap

---- Real-time Memory Report at c_bands before calling an iterative solver
           327 MiB given to the printing process from OS
             0 MiB allocation reported by mallinfo(arena+hblkhd)
           239 MiB available memory on the node where the printing process lives
------------------
     ethr =  1.64E-11,  avg # of iterations =  3.0

     negative rho (up, down):  9.170E-02 0.000E+00

     total cpu time spent up to now is       37.2 secs

     total energy              =      -2.31327986 Ry
     estimated scf accuracy    <          1.1E-09 Ry

     iteration # 29     ecut=    20.00 Ry     beta= 0.70
     Davidson diagonalization with overlap

---- Real-time Memory Report at c_bands before calling an iterative solver
           327 MiB given to the printing process from OS
             0 MiB allocation reported by mallinfo(arena+hblkhd)
           239 MiB available memory on the node where the printing process lives
------------------
     ethr =  1.64E-11,  avg # of iterations =  2.0

     negative rho (up, down):  9.170E-02 0.000E+00

     total cpu time spent up to now is       37.8 secs

     total energy              =      -2.31327987 Ry
     estimated scf accuracy    <          1.0E-09 Ry

     iteration # 30     ecut=    20.00 Ry     beta= 0.70
     Davidson diagonalization with overlap

---- Real-time Memory Report at c_bands before calling an iterative solver
           327 MiB given to the printing process from OS
             0 MiB allocation reported by mallinfo(arena+hblkhd)
           239 MiB available memory on the node where the printing process lives
------------------
     ethr =  1.64E-11,  avg # of iterations =  2.0

     negative rho (up, down):  9.170E-02 0.000E+00

     total cpu time spent up to now is       38.5 secs

     total energy              =      -2.31327987 Ry
     estimated scf accuracy    <          1.0E-09 Ry

     iteration # 31     ecut=    20.00 Ry     beta= 0.70
     Davidson diagonalization with overlap

---- Real-time Memory Report at c_bands before calling an iterative solver
           327 MiB given to the printing process from OS
             0 MiB allocation reported by mallinfo(arena+hblkhd)
           239 MiB available memory on the node where the printing process lives
------------------
     ethr =  1.64E-11,  avg # of iterations =  1.0

     negative rho (up, down):  9.170E-02 0.000E+00

     total cpu time spent up to now is       39.1 secs

     total energy              =      -2.31327982 Ry
     estimated scf accuracy    <          1.0E-09 Ry

     iteration # 32     ecut=    20.00 Ry     beta= 0.70
     Davidson diagonalization with overlap

---- Real-time Memory Report at c_bands before calling an iterative solver
           327 MiB given to the printing process from OS
             0 MiB allocation reported by mallinfo(arena+hblkhd)
           239 MiB available memory on the node where the printing process lives
------------------
     ethr =  1.64E-11,  avg # of iterations =  2.0

     negative rho (up, down):  9.170E-02 0.000E+00

     total cpu time spent up to now is       39.8 secs

     total energy              =      -2.31327491 Ry
     estimated scf accuracy    <          1.0E-09 Ry

     iteration # 33     ecut=    20.00 Ry     beta= 0.70
     Davidson diagonalization with overlap

---- Real-time Memory Report at c_bands before calling an iterative solver
           327 MiB given to the printing process from OS
             0 MiB allocation reported by mallinfo(arena+hblkhd)
           239 MiB available memory on the node where the printing process lives
------------------
     ethr =  1.64E-11,  avg # of iterations =  4.0

     negative rho (up, down):  9.170E-02 0.000E+00

     total cpu time spent up to now is       40.5 secs

     total energy              =      -2.31328347 Ry
     estimated scf accuracy    <          5.1E-09 Ry

     iteration # 34     ecut=    20.00 Ry     beta= 0.70
     Davidson diagonalization with overlap

---- Real-time Memory Report at c_bands before calling an iterative solver
           327 MiB given to the printing process from OS
             0 MiB allocation reported by mallinfo(arena+hblkhd)
           239 MiB available memory on the node where the printing process lives
------------------
     ethr =  1.64E-11,  avg # of iterations =  4.0

     negative rho (up, down):  9.170E-02 0.000E+00

     total cpu time spent up to now is       41.2 secs

     total energy              =      -2.31328166 Ry
     estimated scf accuracy    <          1.5E-09 Ry

     iteration # 35     ecut=    20.00 Ry     beta= 0.70
     Davidson diagonalization with overlap

---- Real-time Memory Report at c_bands before calling an iterative solver
           327 MiB given to the printing process from OS
             0 MiB allocation reported by mallinfo(arena+hblkhd)
           239 MiB available memory on the node where the printing process lives
------------------
     ethr =  1.64E-11,  avg # of iterations =  4.0

     negative rho (up, down):  9.171E-02 0.000E+00

     total cpu time spent up to now is       41.9 secs

     total energy              =      -2.31327912 Ry
     estimated scf accuracy    <          7.7E-10 Ry

     iteration # 36     ecut=    20.00 Ry     beta= 0.70
     Davidson diagonalization with overlap

---- Real-time Memory Report at c_bands before calling an iterative solver
           327 MiB given to the printing process from OS
             0 MiB allocation reported by mallinfo(arena+hblkhd)
           239 MiB available memory on the node where the printing process lives
------------------
     ethr =  1.64E-11,  avg # of iterations =  4.0

     negative rho (up, down):  9.171E-02 0.000E+00

     total cpu time spent up to now is       42.6 secs

     total energy              =      -2.31327877 Ry
     estimated scf accuracy    <          3.8E-09 Ry

     iteration # 37     ecut=    20.00 Ry     beta= 0.70
     Davidson diagonalization with overlap

---- Real-time Memory Report at c_bands before calling an iterative solver
           327 MiB given to the printing process from OS
             0 MiB allocation reported by mallinfo(arena+hblkhd)
           239 MiB available memory on the node where the printing process lives
------------------
     ethr =  1.64E-11,  avg # of iterations =  3.0

     negative rho (up, down):  9.171E-02 0.000E+00

     total cpu time spent up to now is       43.3 secs

     total energy              =      -2.31327869 Ry
     estimated scf accuracy    <          2.9E-09 Ry

     iteration # 38     ecut=    20.00 Ry     beta= 0.70
     Davidson diagonalization with overlap

---- Real-time Memory Report at c_bands before calling an iterative solver
           327 MiB given to the printing process from OS
             0 MiB allocation reported by mallinfo(arena+hblkhd)
           239 MiB available memory on the node where the printing process lives
------------------
     ethr =  1.64E-11,  avg # of iterations =  2.0

     negative rho (up, down):  9.170E-02 0.000E+00

     total cpu time spent up to now is       43.9 secs

     total energy              =      -2.31328374 Ry
     estimated scf accuracy    <          3.4E-09 Ry

     iteration # 39     ecut=    20.00 Ry     beta= 0.70
     Davidson diagonalization with overlap

---- Real-time Memory Report at c_bands before calling an iterative solver
           327 MiB given to the printing process from OS
             0 MiB allocation reported by mallinfo(arena+hblkhd)
           239 MiB available memory on the node where the printing process lives
------------------
     ethr =  1.64E-11,  avg # of iterations =  4.0

     negative rho (up, down):  9.170E-02 0.000E+00

     total cpu time spent up to now is       44.6 secs

     total energy              =      -2.31330059 Ry
     estimated scf accuracy    <          1.4E-09 Ry

     iteration # 40     ecut=    20.00 Ry     beta= 0.70
     Davidson diagonalization with overlap

---- Real-time Memory Report at c_bands before calling an iterative solver
           327 MiB given to the printing process from OS
             0 MiB allocation reported by mallinfo(arena+hblkhd)
           239 MiB available memory on the node where the printing process lives
------------------
     ethr =  1.64E-11,  avg # of iterations =  5.0

     negative rho (up, down):  9.170E-02 0.000E+00

     total cpu time spent up to now is       45.3 secs

     total energy              =      -2.31328106 Ry
     estimated scf accuracy    <       0.00000002 Ry

     iteration # 41     ecut=    20.00 Ry     beta= 0.70
     Davidson diagonalization with overlap

---- Real-time Memory Report at c_bands before calling an iterative solver
           327 MiB given to the printing process from OS
             0 MiB allocation reported by mallinfo(arena+hblkhd)
           239 MiB available memory on the node where the printing process lives
------------------
     ethr =  1.64E-11,  avg # of iterations =  5.0

     negative rho (up, down):  9.169E-02 0.000E+00

     total cpu time spent up to now is       46.1 secs

     total energy              =      -2.31328598 Ry
     estimated scf accuracy    <          1.5E-09 Ry

     iteration # 42     ecut=    20.00 Ry     beta= 0.70
     Davidson diagonalization with overlap

---- Real-time Memory Report at c_bands before calling an iterative solver
           327 MiB given to the printing process from OS
             0 MiB allocation reported by mallinfo(arena+hblkhd)
           239 MiB available memory on the node where the printing process lives
------------------
     ethr =  1.64E-11,  avg # of iterations =  4.0

     negative rho (up, down):  9.170E-02 0.000E+00

     total cpu time spent up to now is       46.8 secs

     total energy              =      -2.31329286 Ry
     estimated scf accuracy    <          9.0E-09 Ry

     iteration # 43     ecut=    20.00 Ry     beta= 0.70
     Davidson diagonalization with overlap

---- Real-time Memory Report at c_bands before calling an iterative solver
           327 MiB given to the printing process from OS
             0 MiB allocation reported by mallinfo(arena+hblkhd)
           239 MiB available memory on the node where the printing process lives
------------------
     ethr =  1.64E-11,  avg # of iterations =  5.0

     negative rho (up, down):  9.171E-02 0.000E+00

     total cpu time spent up to now is       47.5 secs

     total energy              =      -2.31327685 Ry
     estimated scf accuracy    <          9.3E-09 Ry

     iteration # 44     ecut=    20.00 Ry     beta= 0.70
     Davidson diagonalization with overlap

---- Real-time Memory Report at c_bands before calling an iterative solver
           327 MiB given to the printing process from OS
             0 MiB allocation reported by mallinfo(arena+hblkhd)
           239 MiB available memory on the node where the printing process lives
------------------
     ethr =  1.64E-11,  avg # of iterations =  4.0

     negative rho (up, down):  9.170E-02 0.000E+00

     total cpu time spent up to now is       48.2 secs

     total energy              =      -2.31327993 Ry
     estimated scf accuracy    <          3.1E-10 Ry

     iteration # 45     ecut=    20.00 Ry     beta= 0.70
     Davidson diagonalization with overlap

---- Real-time Memory Report at c_bands before calling an iterative solver
           327 MiB given to the printing process from OS
             0 MiB allocation reported by mallinfo(arena+hblkhd)
           239 MiB available memory on the node where the printing process lives
------------------
     ethr =  1.57E-11,  avg # of iterations =  4.0

     negative rho (up, down):  9.170E-02 0.000E+00

     total cpu time spent up to now is       48.9 secs

     total energy              =      -2.31327968 Ry
     estimated scf accuracy    <          3.9E-10 Ry

     iteration # 46     ecut=    20.00 Ry     beta= 0.70
     Davidson diagonalization with overlap

---- Real-time Memory Report at c_bands before calling an iterative solver
           327 MiB given to the printing process from OS
             0 MiB allocation reported by mallinfo(arena+hblkhd)
           239 MiB available memory on the node where the printing process lives
------------------
     ethr =  1.57E-11,  avg # of iterations =  3.0

     negative rho (up, down):  9.170E-02 0.000E+00

     total cpu time spent up to now is       49.6 secs

     total energy              =      -2.31327800 Ry
     estimated scf accuracy    <          7.7E-10 Ry

     iteration # 47     ecut=    20.00 Ry     beta= 0.70
     Davidson diagonalization with overlap

---- Real-time Memory Report at c_bands before calling an iterative solver
           327 MiB given to the printing process from OS
             0 MiB allocation reported by mallinfo(arena+hblkhd)
           239 MiB available memory on the node where the printing process lives
------------------
     ethr =  1.57E-11,  avg # of iterations =  3.0

     negative rho (up, down):  9.170E-02 0.000E+00

     total cpu time spent up to now is       50.3 secs

     total energy              =      -2.31328885 Ry
     estimated scf accuracy    <          1.4E-09 Ry

     iteration # 48     ecut=    20.00 Ry     beta= 0.70
     Davidson diagonalization with overlap

---- Real-time Memory Report at c_bands before calling an iterative solver
           327 MiB given to the printing process from OS
             0 MiB allocation reported by mallinfo(arena+hblkhd)
           239 MiB available memory on the node where the printing process lives
------------------
     ethr =  1.57E-11,  avg # of iterations =  5.0

     negative rho (up, down):  9.170E-02 0.000E+00

     total cpu time spent up to now is       51.1 secs

     total energy              =      -2.31328981 Ry
     estimated scf accuracy    <          5.0E-09 Ry

     iteration # 49     ecut=    20.00 Ry     beta= 0.70
     Davidson diagonalization with overlap

---- Real-time Memory Report at c_bands before calling an iterative solver
           327 MiB given to the printing process from OS
             0 MiB allocation reported by mallinfo(arena+hblkhd)
           239 MiB available memory on the node where the printing process lives
------------------
     ethr =  1.57E-11,  avg # of iterations =  1.0

     negative rho (up, down):  9.170E-02 0.000E+00

     total cpu time spent up to now is       51.8 secs

     total energy              =      -2.31327415 Ry
     estimated scf accuracy    <          5.0E-09 Ry

     iteration # 50     ecut=    20.00 Ry     beta= 0.70
     Davidson diagonalization with overlap

---- Real-time Memory Report at c_bands before calling an iterative solver
           327 MiB given to the printing process from OS
             0 MiB allocation reported by mallinfo(arena+hblkhd)
           239 MiB available memory on the node where the printing process lives
------------------
     ethr =  1.57E-11,  avg # of iterations =  5.0

     negative rho (up, down):  9.170E-02 0.000E+00

     total cpu time spent up to now is       52.7 secs

     total energy              =      -2.31327505 Ry
     estimated scf accuracy    <          5.3E-09 Ry

     iteration # 51     ecut=    20.00 Ry     beta= 0.70
     Davidson diagonalization with overlap

---- Real-time Memory Report at c_bands before calling an iterative solver
           327 MiB given to the printing process from OS
             0 MiB allocation reported by mallinfo(arena+hblkhd)
           239 MiB available memory on the node where the printing process lives
------------------
     ethr =  1.57E-11,  avg # of iterations =  3.0

     negative rho (up, down):  9.171E-02 0.000E+00

     total cpu time spent up to now is       53.4 secs

     total energy              =      -2.31328113 Ry
     estimated scf accuracy    <          4.6E-09 Ry

     iteration # 52     ecut=    20.00 Ry     beta= 0.70
     Davidson diagonalization with overlap

---- Real-time Memory Report at c_bands before calling an iterative solver
           327 MiB given to the printing process from OS
             0 MiB allocation reported by mallinfo(arena+hblkhd)
           239 MiB available memory on the node where the printing process lives
------------------
     ethr =  1.57E-11,  avg # of iterations =  5.0

     negative rho (up, down):  9.170E-02 0.000E+00

     total cpu time spent up to now is       54.1 secs

     total energy              =      -2.31328252 Ry
     estimated scf accuracy    <          3.6E-09 Ry

     iteration # 53     ecut=    20.00 Ry     beta= 0.70
     Davidson diagonalization with overlap

---- Real-time Memory Report at c_bands before calling an iterative solver
           327 MiB given to the printing process from OS
             0 MiB allocation reported by mallinfo(arena+hblkhd)
           239 MiB available memory on the node where the printing process lives
------------------
     ethr =  1.57E-11,  avg # of iterations =  4.0

     negative rho (up, down):  9.170E-02 0.000E+00

     total cpu time spent up to now is       54.9 secs

     total energy              =      -2.31328077 Ry
     estimated scf accuracy    <          1.4E-09 Ry

     iteration # 54     ecut=    20.00 Ry     beta= 0.70
     Davidson diagonalization with overlap

---- Real-time Memory Report at c_bands before calling an iterative solver
           327 MiB given to the printing process from OS
             0 MiB allocation reported by mallinfo(arena+hblkhd)
           239 MiB available memory on the node where the printing process lives
------------------
     ethr =  1.57E-11,  avg # of iterations =  4.0

     negative rho (up, down):  9.170E-02 0.000E+00

     total cpu time spent up to now is       55.6 secs

     total energy              =      -2.31327486 Ry
     estimated scf accuracy    <          1.5E-09 Ry

     iteration # 55     ecut=    20.00 Ry     beta= 0.70
     Davidson diagonalization with overlap

---- Real-time Memory Report at c_bands before calling an iterative solver
           327 MiB given to the printing process from OS
             0 MiB allocation reported by mallinfo(arena+hblkhd)
           239 MiB available memory on the node where the printing process lives
------------------
     ethr =  1.57E-11,  avg # of iterations =  4.0

     negative rho (up, down):  9.170E-02 0.000E+00

     total cpu time spent up to now is       56.3 secs

     total energy              =      -2.31328338 Ry
     estimated scf accuracy    <          5.5E-09 Ry

     iteration # 56     ecut=    20.00 Ry     beta= 0.70
     Davidson diagonalization with overlap

---- Real-time Memory Report at c_bands before calling an iterative solver
           327 MiB given to the printing process from OS
             0 MiB allocation reported by mallinfo(arena+hblkhd)
           239 MiB available memory on the node where the printing process lives
------------------
     ethr =  1.57E-11,  avg # of iterations =  5.0

     negative rho (up, down):  9.169E-02 0.000E+00

     total cpu time spent up to now is       57.1 secs

     total energy              =      -2.31329343 Ry
     estimated scf accuracy    <          3.8E-09 Ry

     iteration # 57     ecut=    20.00 Ry     beta= 0.70
     Davidson diagonalization with overlap

---- Real-time Memory Report at c_bands before calling an iterative solver
           327 MiB given to the printing process from OS
             0 MiB allocation reported by mallinfo(arena+hblkhd)
           239 MiB available memory on the node where the printing process lives
------------------
     ethr =  1.57E-11,  avg # of iterations =  4.0

     negative rho (up, down):  9.169E-02 0.000E+00

     total cpu time spent up to now is       57.8 secs

     total energy              =      -2.31329165 Ry
     estimated scf accuracy    <       0.00000001 Ry

     iteration # 58     ecut=    20.00 Ry     beta= 0.70
     Davidson diagonalization with overlap

---- Real-time Memory Report at c_bands before calling an iterative solver
           327 MiB given to the printing process from OS
             0 MiB allocation reported by mallinfo(arena+hblkhd)
           239 MiB available memory on the node where the printing process lives
------------------
     ethr =  1.57E-11,  avg # of iterations =  4.0

     negative rho (up, down):  9.170E-02 0.000E+00

     total cpu time spent up to now is       58.5 secs

     total energy              =      -2.31328819 Ry
     estimated scf accuracy    <          5.2E-09 Ry

     iteration # 59     ecut=    20.00 Ry     beta= 0.70
     Davidson diagonalization with overlap

---- Real-time Memory Report at c_bands before calling an iterative solver
           327 MiB given to the printing process from OS
             0 MiB allocation reported by mallinfo(arena+hblkhd)
           239 MiB available memory on the node where the printing process lives
------------------
     ethr =  1.57E-11,  avg # of iterations =  4.0

     negative rho (up, down):  9.170E-02 0.000E+00

     total cpu time spent up to now is       59.4 secs

     total energy              =      -2.31327913 Ry
     estimated scf accuracy    <          4.6E-09 Ry

     iteration # 60     ecut=    20.00 Ry     beta= 0.70
     Davidson diagonalization with overlap

---- Real-time Memory Report at c_bands before calling an iterative solver
           327 MiB given to the printing process from OS
             0 MiB allocation reported by mallinfo(arena+hblkhd)
           239 MiB available memory on the node where the printing process lives
------------------
     ethr =  1.57E-11,  avg # of iterations =  5.0

     negative rho (up, down):  9.170E-02 0.000E+00

     total cpu time spent up to now is       60.1 secs

     total energy              =      -2.31327997 Ry
     estimated scf accuracy    <          8.7E-10 Ry

     iteration # 61     ecut=    20.00 Ry     beta= 0.70
     Davidson diagonalization with overlap

---- Real-time Memory Report at c_bands before calling an iterative solver
           327 MiB given to the printing process from OS
             0 MiB allocation reported by mallinfo(arena+hblkhd)
           239 MiB available memory on the node where the printing process lives
------------------
     ethr =  1.57E-11,  avg # of iterations =  3.0

     negative rho (up, down):  9.170E-02 0.000E+00

     total cpu time spent up to now is       60.8 secs

     total energy              =      -2.31327992 Ry
     estimated scf accuracy    <          1.2E-09 Ry

     iteration # 62     ecut=    20.00 Ry     beta= 0.70
     Davidson diagonalization with overlap

---- Real-time Memory Report at c_bands before calling an iterative solver
           327 MiB given to the printing process from OS
             0 MiB allocation reported by mallinfo(arena+hblkhd)
           239 MiB available memory on the node where the printing process lives
------------------
     ethr =  1.57E-11,  avg # of iterations =  2.0

     negative rho (up, down):  9.170E-02 0.000E+00

     total cpu time spent up to now is       61.5 secs

     total energy              =      -2.31327985 Ry
     estimated scf accuracy    <          1.1E-09 Ry

     iteration # 63     ecut=    20.00 Ry     beta= 0.70
     Davidson diagonalization with overlap

---- Real-time Memory Report at c_bands before calling an iterative solver
           327 MiB given to the printing process from OS
             0 MiB allocation reported by mallinfo(arena+hblkhd)
           239 MiB available memory on the node where the printing process lives
------------------
     ethr =  1.57E-11,  avg # of iterations =  3.0

     negative rho (up, down):  9.170E-02 0.000E+00

     total cpu time spent up to now is       62.2 secs

     total energy              =      -2.31328435 Ry
     estimated scf accuracy    <          8.2E-10 Ry

     iteration # 64     ecut=    20.00 Ry     beta= 0.70
     Davidson diagonalization with overlap

---- Real-time Memory Report at c_bands before calling an iterative solver
           327 MiB given to the printing process from OS
             0 MiB allocation reported by mallinfo(arena+hblkhd)
           239 MiB available memory on the node where the printing process lives
------------------
     ethr =  1.57E-11,  avg # of iterations =  4.0

     negative rho (up, down):  9.169E-02 0.000E+00

     total cpu time spent up to now is       63.0 secs

     total energy              =      -2.31328921 Ry
     estimated scf accuracy    <          2.5E-09 Ry

     iteration # 65     ecut=    20.00 Ry     beta= 0.70
     Davidson diagonalization with overlap

---- Real-time Memory Report at c_bands before calling an iterative solver
           327 MiB given to the printing process from OS
             0 MiB allocation reported by mallinfo(arena+hblkhd)
           239 MiB available memory on the node where the printing process lives
------------------
     ethr =  1.57E-11,  avg # of iterations =  5.0

     negative rho (up, down):  9.170E-02 0.000E+00

     total cpu time spent up to now is       63.7 secs

     total energy              =      -2.31328848 Ry
     estimated scf accuracy    <          5.6E-09 Ry

     iteration # 66     ecut=    20.00 Ry     beta= 0.70
     Davidson diagonalization with overlap

---- Real-time Memory Report at c_bands before calling an iterative solver
           327 MiB given to the printing process from OS
             0 MiB allocation reported by mallinfo(arena+hblkhd)
           239 MiB available memory on the node where the printing process lives
------------------
     ethr =  1.57E-11,  avg # of iterations =  3.0

     negative rho (up, down):  9.170E-02 0.000E+00

     total cpu time spent up to now is       64.4 secs

     total energy              =      -2.31327717 Ry
     estimated scf accuracy    <          4.1E-09 Ry

     iteration # 67     ecut=    20.00 Ry     beta= 0.70
     Davidson diagonalization with overlap

---- Real-time Memory Report at c_bands before calling an iterative solver
           327 MiB given to the printing process from OS
             0 MiB allocation reported by mallinfo(arena+hblkhd)
           239 MiB available memory on the node where the printing process lives
------------------
     ethr =  1.57E-11,  avg # of iterations =  5.0

     negative rho (up, down):  9.170E-02 0.000E+00

     total cpu time spent up to now is       65.1 secs

     total energy              =      -2.31328099 Ry
     estimated scf accuracy    <          4.7E-09 Ry

     iteration # 68     ecut=    20.00 Ry     beta= 0.70
     Davidson diagonalization with overlap

---- Real-time Memory Report at c_bands before calling an iterative solver
           327 MiB given to the printing process from OS
             0 MiB allocation reported by mallinfo(arena+hblkhd)
[...]
------------------
     ethr =  1.57E-11,  avg # of iterations =  3.0

     negative rho (up, down):  9.170E-02 0.000E+00

     total cpu time spent up to now is       71.8 secs

     total energy              =      -2.31327988 Ry
     estimated scf accuracy    <          1.3E-09 Ry

     iteration # 77     ecut=    20.00 Ry     beta= 0.70
     Davidson diagonalization with overlap

---- Real-time Memory Report at c_bands before calling an iterative solver
           327 MiB given to the printing process from OS
             0 MiB allocation reported by mallinfo(arena+hblkhd)
           239 MiB available memory on the node where the printing process lives
------------------
     ethr =  1.57E-11,  avg # of iterations =  4.0

     negative rho (up, down):  9.170E-02 0.000E+00

     total cpu time spent up to now is       72.5 secs

     total energy              =      -2.31327973 Ry
     estimated scf accuracy    <          8.3E-10 Ry

     iteration # 78     ecut=    20.00 Ry     beta= 0.70
     Davidson diagonalization with overlap

---- Real-time Memory Report at c_bands before calling an iterative solver
           327 MiB given to the printing process from OS
             0 MiB allocation reported by mallinfo(arena+hblkhd)
           239 MiB available memory on the node where the printing process lives
------------------
     ethr =  1.57E-11,  avg # of iterations =  2.0

     negative rho (up, down):  9.170E-02 0.000E+00

     total cpu time spent up to now is       73.2 secs

     total energy              =      -2.31327786 Ry
     estimated scf accuracy    <          8.6E-10 Ry

     iteration # 79     ecut=    20.00 Ry     beta= 0.70
     Davidson diagonalization with overlap

---- Real-time Memory Report at c_bands before calling an iterative solver
           327 MiB given to the printing process from OS
             0 MiB allocation reported by mallinfo(arena+hblkhd)
           239 MiB available memory on the node where the printing process lives
------------------
     ethr =  1.57E-11,  avg # of iterations =  4.0

     negative rho (up, down):  9.170E-02 0.000E+00

     total cpu time spent up to now is       73.9 secs

     total energy              =      -2.31327803 Ry
     estimated scf accuracy    <          4.1E-09 Ry

     iteration # 80     ecut=    20.00 Ry     beta= 0.70
     Davidson diagonalization with overlap

---- Real-time Memory Report at c_bands before calling an iterative solver
           327 MiB given to the printing process from OS
             0 MiB allocation reported by mallinfo(arena+hblkhd)
           239 MiB available memory on the node where the printing process lives
------------------
     ethr =  1.57E-11,  avg # of iterations =  2.0

     negative rho (up, down):  9.170E-02 0.000E+00

     total cpu time spent up to now is       74.5 secs

     total energy              =      -2.31327803 Ry
     estimated scf accuracy    <          4.2E-09 Ry

     iteration # 81     ecut=    20.00 Ry     beta= 0.70
     Davidson diagonalization with overlap

---- Real-time Memory Report at c_bands before calling an iterative solver
           327 MiB given to the printing process from OS
             0 MiB allocation reported by mallinfo(arena+hblkhd)
           239 MiB available memory on the node where the printing process lives
------------------
     ethr =  1.57E-11,  avg # of iterations =  2.0

     negative rho (up, down):  9.170E-02 0.000E+00

     total cpu time spent up to now is       75.2 secs

     total energy              =      -2.31327800 Ry
     estimated scf accuracy    <          4.1E-09 Ry

     iteration # 82     ecut=    20.00 Ry     beta= 0.70
     Davidson diagonalization with overlap

---- Real-time Memory Report at c_bands before calling an iterative solver
           327 MiB given to the printing process from OS
             0 MiB allocation reported by mallinfo(arena+hblkhd)
           239 MiB available memory on the node where the printing process lives
------------------
     ethr =  1.57E-11,  avg # of iterations =  2.0

     negative rho (up, down):  9.170E-02 0.000E+00

     total cpu time spent up to now is       75.8 secs

     total energy              =      -2.31327808 Ry
     estimated scf accuracy    <          4.1E-09 Ry

     iteration # 83     ecut=    20.00 Ry     beta= 0.70
     Davidson diagonalization with overlap

---- Real-time Memory Report at c_bands before calling an iterative solver
           327 MiB given to the printing process from OS
             0 MiB allocation reported by mallinfo(arena+hblkhd)
           239 MiB available memory on the node where the printing process lives
------------------
     ethr =  1.57E-11,  avg # of iterations =  2.0

     negative rho (up, down):  9.171E-02 0.000E+00

     total cpu time spent up to now is       76.5 secs

     total energy              =      -2.31327477 Ry
     estimated scf accuracy    <          4.2E-09 Ry

     iteration # 84     ecut=    20.00 Ry     beta= 0.70
     Davidson diagonalization with overlap

---- Real-time Memory Report at c_bands before calling an iterative solver
           327 MiB given to the printing process from OS
             0 MiB allocation reported by mallinfo(arena+hblkhd)
           239 MiB available memory on the node where the printing process lives
------------------
     ethr =  1.57E-11,  avg # of iterations =  4.0

     negative rho (up, down):  9.171E-02 0.000E+00

     total cpu time spent up to now is       77.2 secs

     total energy              =      -2.31327980 Ry
     estimated scf accuracy    <          4.9E-09 Ry

     iteration # 85     ecut=    20.00 Ry     beta= 0.70
     Davidson diagonalization with overlap

---- Real-time Memory Report at c_bands before calling an iterative solver
           327 MiB given to the printing process from OS
             0 MiB allocation reported by mallinfo(arena+hblkhd)
           239 MiB available memory on the node where the printing process lives
------------------
     ethr =  1.57E-11,  avg # of iterations =  4.0

     negative rho (up, down):  9.171E-02 0.000E+00

     total cpu time spent up to now is       77.9 secs

     total energy              =      -2.31328007 Ry
     estimated scf accuracy    <          4.0E-09 Ry

     iteration # 86     ecut=    20.00 Ry     beta= 0.70
     Davidson diagonalization with overlap

---- Real-time Memory Report at c_bands before calling an iterative solver
           327 MiB given to the printing process from OS
             0 MiB allocation reported by mallinfo(arena+hblkhd)
           239 MiB available memory on the node where the printing process lives
------------------
     ethr =  1.57E-11,  avg # of iterations =  2.0

     negative rho (up, down):  9.171E-02 0.000E+00

     total cpu time spent up to now is       78.5 secs

     total energy              =      -2.31328051 Ry
     estimated scf accuracy    <          4.4E-09 Ry

     iteration # 87     ecut=    20.00 Ry     beta= 0.70
     Davidson diagonalization with overlap

---- Real-time Memory Report at c_bands before calling an iterative solver
           327 MiB given to the printing process from OS
             0 MiB allocation reported by mallinfo(arena+hblkhd)
           239 MiB available memory on the node where the printing process lives
------------------
     ethr =  1.57E-11,  avg # of iterations =  3.0

     negative rho (up, down):  9.172E-02 0.000E+00

     total cpu time spent up to now is       79.2 secs

     total energy              =      -2.31327894 Ry
     estimated scf accuracy    <          3.3E-09 Ry

     iteration # 88     ecut=    20.00 Ry     beta= 0.70
     Davidson diagonalization with overlap

---- Real-time Memory Report at c_bands before calling an iterative solver
           327 MiB given to the printing process from OS
             0 MiB allocation reported by mallinfo(arena+hblkhd)
           239 MiB available memory on the node where the printing process lives
------------------
     ethr =  1.57E-11,  avg # of iterations =  4.0

     negative rho (up, down):  9.168E-02 0.000E+00

     total cpu time spent up to now is       79.9 secs

     total energy              =      -2.31331131 Ry
     estimated scf accuracy    <          3.9E-09 Ry

     iteration # 89     ecut=    20.00 Ry     beta= 0.70
     Davidson diagonalization with overlap

---- Real-time Memory Report at c_bands before calling an iterative solver
           327 MiB given to the printing process from OS
             0 MiB allocation reported by mallinfo(arena+hblkhd)
           239 MiB available memory on the node where the printing process lives
------------------
     ethr =  1.57E-11,  avg # of iterations =  5.0

     negative rho (up, down):  9.169E-02 0.000E+00

     total cpu time spent up to now is       80.6 secs

     total energy              =      -2.31329473 Ry
     estimated scf accuracy    <       0.00000006 Ry

     iteration # 90     ecut=    20.00 Ry     beta= 0.70
     Davidson diagonalization with overlap

---- Real-time Memory Report at c_bands before calling an iterative solver
           327 MiB given to the printing process from OS
             0 MiB allocation reported by mallinfo(arena+hblkhd)
           239 MiB available memory on the node where the printing process lives
------------------
     ethr =  1.57E-11,  avg # of iterations =  5.0

     negative rho (up, down):  9.170E-02 0.000E+00

     total cpu time spent up to now is       81.4 secs

     total energy              =      -2.31327733 Ry
     estimated scf accuracy    <       0.00000002 Ry

     iteration # 91     ecut=    20.00 Ry     beta= 0.70
     Davidson diagonalization with overlap

---- Real-time Memory Report at c_bands before calling an iterative solver
           327 MiB given to the printing process from OS
             0 MiB allocation reported by mallinfo(arena+hblkhd)
           239 MiB available memory on the node where the printing process lives
------------------
     ethr =  1.57E-11,  avg # of iterations =  5.0

     negative rho (up, down):  9.170E-02 0.000E+00

     total cpu time spent up to now is       82.1 secs

     total energy              =      -2.31328658 Ry
     estimated scf accuracy    <          1.1E-09 Ry

     iteration # 92     ecut=    20.00 Ry     beta= 0.70
     Davidson diagonalization with overlap

---- Real-time Memory Report at c_bands before calling an iterative solver
           327 MiB given to the printing process from OS
             0 MiB allocation reported by mallinfo(arena+hblkhd)
           239 MiB available memory on the node where the printing process lives
------------------
     ethr =  1.57E-11,  avg # of iterations =  5.0

     negative rho (up, down):  9.170E-02 0.000E+00

     total cpu time spent up to now is       82.8 secs

     total energy              =      -2.31328423 Ry
     estimated scf accuracy    <          4.1E-09 Ry

     iteration # 93     ecut=    20.00 Ry     beta= 0.70
     Davidson diagonalization with overlap

---- Real-time Memory Report at c_bands before calling an iterative solver
           327 MiB given to the printing process from OS
             0 MiB allocation reported by mallinfo(arena+hblkhd)
           239 MiB available memory on the node where the printing process lives
------------------
     ethr =  1.57E-11,  avg # of iterations =  4.0

     negative rho (up, down):  9.170E-02 0.000E+00

     total cpu time spent up to now is       83.5 secs

     total energy              =      -2.31328752 Ry
     estimated scf accuracy    <          1.4E-09 Ry

     iteration # 94     ecut=    20.00 Ry     beta= 0.70
     Davidson diagonalization with overlap

---- Real-time Memory Report at c_bands before calling an iterative solver
           327 MiB given to the printing process from OS
             0 MiB allocation reported by mallinfo(arena+hblkhd)
           239 MiB available memory on the node where the printing process lives
------------------
     ethr =  1.57E-11,  avg # of iterations =  4.0

     negative rho (up, down):  9.170E-02 0.000E+00

     total cpu time spent up to now is       84.2 secs

     total energy              =      -2.31328736 Ry
     estimated scf accuracy    <          4.9E-09 Ry

     iteration # 95     ecut=    20.00 Ry     beta= 0.70
     Davidson diagonalization with overlap

---- Real-time Memory Report at c_bands before calling an iterative solver
           327 MiB given to the printing process from OS
             0 MiB allocation reported by mallinfo(arena+hblkhd)
           239 MiB available memory on the node where the printing process lives
------------------
     ethr =  1.57E-11,  avg # of iterations =  2.0

     negative rho (up, down):  9.170E-02 0.000E+00

     total cpu time spent up to now is       84.9 secs

     total energy              =      -2.31328403 Ry
     estimated scf accuracy    <          4.3E-09 Ry

     iteration # 96     ecut=    20.00 Ry     beta= 0.70
     Davidson diagonalization with overlap

---- Real-time Memory Report at c_bands before calling an iterative solver
           327 MiB given to the printing process from OS
             0 MiB allocation reported by mallinfo(arena+hblkhd)
           239 MiB available memory on the node where the printing process lives
------------------
     ethr =  1.57E-11,  avg # of iterations =  4.0

     negative rho (up, down):  9.171E-02 0.000E+00

     total cpu time spent up to now is       85.6 secs

     total energy              =      -2.31328019 Ry
     estimated scf accuracy    <          1.3E-09 Ry

     iteration # 97     ecut=    20.00 Ry     beta= 0.70
     Davidson diagonalization with overlap

---- Real-time Memory Report at c_bands before calling an iterative solver
           327 MiB given to the printing process from OS
             0 MiB allocation reported by mallinfo(arena+hblkhd)
           239 MiB available memory on the node where the printing process lives
------------------
     ethr =  1.57E-11,  avg # of iterations =  5.0

     negative rho (up, down):  9.169E-02 0.000E+00

     total cpu time spent up to now is       86.3 secs

     total energy              =      -2.31329744 Ry
     estimated scf accuracy    <          3.8E-09 Ry

     iteration # 98     ecut=    20.00 Ry     beta= 0.70
     Davidson diagonalization with overlap

---- Real-time Memory Report at c_bands before calling an iterative solver
           327 MiB given to the printing process from OS
             0 MiB allocation reported by mallinfo(arena+hblkhd)
           239 MiB available memory on the node where the printing process lives
------------------
     ethr =  1.57E-11,  avg # of iterations =  5.0

     negative rho (up, down):  9.169E-02 0.000E+00

     total cpu time spent up to now is       87.0 secs

     total energy              =      -2.31329782 Ry
     estimated scf accuracy    <       0.00000002 Ry

     iteration # 99     ecut=    20.00 Ry     beta= 0.70
     Davidson diagonalization with overlap

---- Real-time Memory Report at c_bands before calling an iterative solver
           327 MiB given to the printing process from OS
             0 MiB allocation reported by mallinfo(arena+hblkhd)
           239 MiB available memory on the node where the printing process lives
------------------
     ethr =  1.57E-11,  avg # of iterations =  2.0

     negative rho (up, down):  9.169E-02 0.000E+00

     total cpu time spent up to now is       87.7 secs

     total energy              =      -2.31329785 Ry
     estimated scf accuracy    <       0.00000002 Ry

     iteration #100     ecut=    20.00 Ry     beta= 0.70
     Davidson diagonalization with overlap

---- Real-time Memory Report at c_bands before calling an iterative solver
           327 MiB given to the printing process from OS
             0 MiB allocation reported by mallinfo(arena+hblkhd)
           239 MiB available memory on the node where the printing process lives
------------------
     ethr =  1.57E-11,  avg # of iterations =  3.0

     negative rho (up, down):  9.171E-02 0.000E+00

     total cpu time spent up to now is       88.4 secs

     total energy              =      -2.31327582 Ry
     estimated scf accuracy    <       0.00000002 Ry

     End of self-consistent calculation

     convergence NOT achieved after 100 iterations: stopping

     Writing config to output data dir ./.save/
     Message from routine punch:
     wavefunctions written to file

     init_run     :      0.60s CPU      0.62s WALL (       1 calls)
     electrons    :     85.79s CPU     85.99s WALL (       4 calls)
     update_pot   :      1.21s CPU      1.23s WALL (       3 calls)
     forces       :      0.42s CPU      0.43s WALL (       3 calls)

     Called by init_run:
     wfcinit      :      0.05s CPU      0.05s WALL (       1 calls)
     wfcinit:atom :      0.00s CPU      0.00s WALL (       1 calls)
     wfcinit:wfcr :      0.05s CPU      0.05s WALL (       1 calls)
     potinit      :      0.37s CPU      0.38s WALL (       1 calls)
     hinit0       :      0.03s CPU      0.03s WALL (       1 calls)

     Called by electrons:
     c_bands      :     20.45s CPU     20.47s WALL (     124 calls)
     sum_band     :      9.73s CPU      9.73s WALL (     124 calls)
     v_of_rho     :     43.60s CPU     43.70s WALL (     127 calls)
     v_h          :      2.52s CPU      2.52s WALL (     127 calls)
     v_xc         :     41.08s CPU     41.17s WALL (     127 calls)
     newd         :      3.11s CPU      3.12s WALL (     127 calls)
     mix_rho      :      9.45s CPU      9.49s WALL (     124 calls)

     Called by c_bands:
     init_us_2    :      0.27s CPU      0.27s WALL (     249 calls)
     init_us_2:cp :      0.27s CPU      0.27s WALL (     249 calls)
     cegterg      :     20.26s CPU     20.29s WALL (     124 calls)

     Called by sum_band:
     sum_band:wei :      0.00s CPU      0.00s WALL (     124 calls)
     sum_band:loo :      2.95s CPU      2.95s WALL (     124 calls)
     sum_band:buf :      0.00s CPU      0.00s WALL (     124 calls)
     sum_band:ini :      0.14s CPU      0.14s WALL (     124 calls)
     sum_band:cal :      0.04s CPU      0.04s WALL (     124 calls)
     sum_band:bec :      0.00s CPU      0.00s WALL (     124 calls)
     addusdens    :      0.83s CPU      0.83s WALL (     124 calls)
     addusd:skk   :      0.24s CPU      0.24s WALL (     124 calls)
     addusd:dgemm :      0.17s CPU      0.17s WALL (     124 calls)
     addusd:qvan2 :      0.22s CPU      0.22s WALL (     124 calls)

     Called by *egterg:
     cdiaghg      :      0.01s CPU      0.01s WALL (     552 calls)
     cegterg:over :      0.23s CPU      0.23s WALL (     432 calls)
     cegterg:upda :      0.18s CPU      0.18s WALL (     432 calls)
     cegterg:last :      0.35s CPU      0.35s WALL (     318 calls)
     h_psi        :     19.16s CPU     19.19s WALL (     557 calls)
     s_psi        :      0.09s CPU      0.09s WALL (     557 calls)
     g_psi        :      0.08s CPU      0.08s WALL (     432 calls)

     Called by h_psi:
     h_psi:calbec :      0.13s CPU      0.13s WALL (     557 calls)
     vloc_psi     :     18.88s CPU     18.90s WALL (     557 calls)
     add_vuspsi   :      0.10s CPU      0.10s WALL (     557 calls)

     General routines
     calbec       :      0.17s CPU      0.17s WALL (     693 calls)
     fft          :     21.82s CPU     21.85s WALL (    1407 calls)
     ffts         :      2.00s CPU      2.01s WALL (     124 calls)
     fftw         :     19.48s CPU     19.50s WALL (    1884 calls)
     davcio       :      0.01s CPU      0.02s WALL (      19 calls)


     PWSCF        :   1m28.21s CPU   1m28.48s WALL


   This run was terminated on:   3:12: 8  28Feb2022            

=------------------------------------------------------------------------------=
   JOB DONE.
=------------------------------------------------------------------------------=
