
     Program PWSCF v.7.0 starts on 28Feb2022 at  0:59: 3 

     This program is part of the open-source Quantum ESPRESSO suite
     for quantum simulation of materials; please cite
         "P. Giannozzi et al., J. Phys.:Condens. Matter 21 395502 (2009);
         "P. Giannozzi et al., J. Phys.:Condens. Matter 29 465901 (2017);
         "P. Giannozzi et al., J. Chem. Phys. 152 154105 (2020);
          URL http://www.quantum-espresso.org", 
     in publications or presentations arising from this work. More details at
     http://www.quantum-espresso.org/quote

     Serial version
     154 MiB available memory on the printing compute node when the environment starts

     Waiting for input...
     Reading input from standard input

     Current dimensions of program PWSCF are:
     Max number of different atomic species (ntypx) = 10
     Max number of k-points (npk) =  40000
     Max angular momentum in pseudopotentials (lmaxx) =  4

     File ./.update deleted, as requested

     File ./.bfgs deleted, as requested

    ============================================================
    |  pseudopotential report for atomic species:  1           |
    |        pseudo potential version   7   3   2              |
    ------------------------------------------------------------
    |  hydrogen            PBE                  exchange-corr  |
    |  z =   1.    zv( 1) =   1.    exfact =   5.00000         |
    |  ifpcor =  0           atomic energy =  -0.91772 Ry      |
    |  index    orbital      occupation    energy              |
    |    1        100           1.00       -0.48               |
    |  rinner =  0.5000                                        |
    |    new generation scheme:                                |
    |    nbeta =  1     kkbeta =  271     rcloc =    0.6000    |
    |    ibeta    l     epsilon   rcut                         |
    |      1       0      -0.48   0.80                         |
    ============================================================

     IMPORTANT: XC functional enforced from input :
     Exchange-correlation= BLYP
                           (   1   3   1   3   0   0   0)
     Any further DFT definition will be discarded
     Please, verify this is what you really want


     G-vector sticks info
     --------------------
     sticks:   dense  smooth     PW     G-vecs:    dense   smooth      PW
     Sum        2869    2869    793               115313   115313   17071

     Using Slab Decomposition



     bravais-lattice index     =            1
     lattice parameter (alat)  =      30.0000  a.u.
     unit-cell volume          =   27000.0000 (a.u.)^3
     number of atoms/cell      =            2
     number of atomic types    =            1
     number of electrons       =         2.00
     number of Kohn-Sham states=            2
     kinetic-energy cutoff     =      10.0000  Ry
     charge density cutoff     =      40.0000  Ry
     scf convergence threshold =      1.0E-08
     mixing beta               =       0.7000
     number of iterations used =            8  plain     mixing
     energy convergence thresh.=      1.0E-04
     force convergence thresh. =      1.0E-03
     Exchange-correlation= BLYP
                           (   1   3   1   3   0   0   0)
     nstep                     =           50


     celldm(1)=  30.000000  celldm(2)=   0.000000  celldm(3)=   0.000000
     celldm(4)=   0.000000  celldm(5)=   0.000000  celldm(6)=   0.000000

     crystal axes: (cart. coord. in units of alat)
               a(1) = (   1.000000   0.000000   0.000000 )  
               a(2) = (   0.000000   1.000000   0.000000 )  
               a(3) = (   0.000000   0.000000   1.000000 )  

     reciprocal axes: (cart. coord. in units 2 pi/alat)
               b(1) = (  1.000000  0.000000  0.000000 )  
               b(2) = (  0.000000  1.000000  0.000000 )  
               b(3) = (  0.000000  0.000000  1.000000 )  


     PseudoPot. # 1 for hy read from file:
     /root/q-e/pseudo/H_US.van
     MD5 check sum: a9a9bfe98ff56cf4de197d71fc46bb44
     Pseudo is Ultrasoft, Zval =  1.0
     Generated by Vanderbilt code, v. 7.3.2
     Using radial grid of  399 points,  1 beta functions with: 
                l(1) =   0
     Q(r) pseudized with  8 coefficients,  rinner =    0.500

     atomic species   valence    mass     pseudopotential
        H              1.00     1.00784     hy( 1.00)

      8 Sym. Ops. (no inversion) found


                                    s                        frac. trans.

      isym =  1     identity                                     

 cryst.   s( 1) = (     1          0          0      )
                  (     0          1          0      )
                  (     0          0          1      )

 cart.    s( 1) = (  1.0000000  0.0000000  0.0000000 )
                  (  0.0000000  1.0000000  0.0000000 )
                  (  0.0000000  0.0000000  1.0000000 )


      isym =  2     180 deg rotation - cart. axis [1,0,0]        

 cryst.   s( 2) = (     1          0          0      )
                  (     0         -1          0      )
                  (     0          0         -1      )

 cart.    s( 2) = (  1.0000000  0.0000000  0.0000000 )
                  (  0.0000000 -1.0000000  0.0000000 )
                  (  0.0000000  0.0000000 -1.0000000 )


      isym =  3      90 deg rotation - cart. axis [-1,0,0]       

 cryst.   s( 3) = (     1          0          0      )
                  (     0          0         -1      )
                  (     0          1          0      )

 cart.    s( 3) = (  1.0000000  0.0000000  0.0000000 )
                  (  0.0000000  0.0000000  1.0000000 )
                  (  0.0000000 -1.0000000  0.0000000 )


      isym =  4      90 deg rotation - cart. axis [1,0,0]        

 cryst.   s( 4) = (     1          0          0      )
                  (     0          0          1      )
                  (     0         -1          0      )

 cart.    s( 4) = (  1.0000000  0.0000000  0.0000000 )
                  (  0.0000000  0.0000000 -1.0000000 )
                  (  0.0000000  1.0000000  0.0000000 )


      isym =  5     inv. 180 deg rotation - cart. axis [0,0,1]   

 cryst.   s( 5) = (     1          0          0      )
                  (     0          1          0      )
                  (     0          0         -1      )

 cart.    s( 5) = (  1.0000000  0.0000000  0.0000000 )
                  (  0.0000000  1.0000000  0.0000000 )
                  (  0.0000000  0.0000000 -1.0000000 )


      isym =  6     inv. 180 deg rotation - cart. axis [0,1,0]   

 cryst.   s( 6) = (     1          0          0      )
                  (     0         -1          0      )
                  (     0          0          1      )

 cart.    s( 6) = (  1.0000000  0.0000000  0.0000000 )
                  (  0.0000000 -1.0000000  0.0000000 )
                  (  0.0000000  0.0000000  1.0000000 )


      isym =  7     inv. 180 deg rotation - cart. axis [0,1,1]   

 cryst.   s( 7) = (     1          0          0      )
                  (     0          0         -1      )
                  (     0         -1          0      )

 cart.    s( 7) = (  1.0000000  0.0000000  0.0000000 )
                  (  0.0000000  0.0000000 -1.0000000 )
                  (  0.0000000 -1.0000000  0.0000000 )


      isym =  8     inv. 180 deg rotation - cart. axis [0,1,-1]  

 cryst.   s( 8) = (     1          0          0      )
                  (     0          0          1      )
                  (     0          1          0      )

 cart.    s( 8) = (  1.0000000  0.0000000  0.0000000 )
                  (  0.0000000  0.0000000  1.0000000 )
                  (  0.0000000  1.0000000  0.0000000 )


     point group C_4v (4mm) 
     there are  5 classes
     the character table:

       E     2C4   C2    2s_v  2s_d 
A_1    1.00  1.00  1.00  1.00  1.00
A_2    1.00  1.00  1.00 -1.00 -1.00
B_1    1.00 -1.00  1.00  1.00 -1.00
B_2    1.00 -1.00  1.00 -1.00  1.00
E      2.00  0.00 -2.00  0.00  0.00

     the symmetry operations in each class and the name of the first element:

     E        1
          identity                                               
     2C4      3    4
           90 deg rotation - cart. axis [-1,0,0]                 
     C2       2
          180 deg rotation - cart. axis [1,0,0]                  
     2s_v     5    6
          inv. 180 deg rotation - cart. axis [0,0,1]             
     2s_d     7    8
          inv. 180 deg rotation - cart. axis [0,1,1]             

   Cartesian axes

     site n.     atom                  positions (alat units)
         1           H   tau(   1) = (   0.0000000   0.0000000   0.0000000  )
         2           H   tau(   2) = (   0.0629909   0.0000000   0.0000000  )

   Crystallographic axes

     site n.     atom                  positions (cryst. coord.)
         1           H   tau(   1) = (  0.0000000  0.0000000  0.0000000  )
         2           H   tau(   2) = (  0.0629909  0.0000000  0.0000000  )

     number of k points=     1
                       cart. coord. in units 2pi/alat
        k(    1) = (  -0.5000000  -0.5000000  -0.5000000), wk =   2.0000000

                       cryst. coord.
        k(    1) = (  -0.5000000  -0.5000000  -0.5000000), wk =   2.0000000

     Dense  grid:   115313 G-vectors     FFT dimensions: (  64,  64,  64)

     Dynamical RAM for                 wfc:       0.44 MB

     Dynamical RAM for     wfc (w. buffer):       0.44 MB

     Dynamical RAM for           str. fact:       1.76 MB

     Dynamical RAM for           local pot:       0.00 MB

     Dynamical RAM for          nlocal pot:       0.44 MB

     Dynamical RAM for                qrad:       0.00 MB

     Dynamical RAM for          rho,v,vnew:      11.28 MB

     Dynamical RAM for               rhoin:       3.76 MB

     Dynamical RAM for            rho*nmix:      28.15 MB

     Dynamical RAM for           G-vectors:       7.48 MB

     Dynamical RAM for          h,s,v(r/c):       0.00 MB

     Dynamical RAM for          <psi|beta>:       0.00 MB

     Dynamical RAM for                 psi:       0.88 MB

     Dynamical RAM for                hpsi:       0.88 MB

     Dynamical RAM for                spsi:       0.88 MB

     Dynamical RAM for      wfcinit/wfcrot:       0.88 MB

     Dynamical RAM for           addusdens:      10.56 MB

     Dynamical RAM for          addusforce:      14.96 MB

     Estimated static dynamical RAM per process >      38.68 MB

     Estimated max dynamical RAM per process >      81.79 MB

     Initial potential from superposition of free atoms

     starting charge       2.0000, renormalised to       2.0000

     negative rho (up, down):  1.972E-01 0.000E+00
     Starting wfcs are    2 randomized atomic wfcs

     total cpu time spent up to now is        0.3 secs

     Self-consistent Calculation

     iteration #  1     ecut=    10.00 Ry     beta= 0.70
     Davidson diagonalization with overlap

---- Real-time Memory Report at c_bands before calling an iterative solver
            82 MiB given to the printing process from OS
             0 MiB allocation reported by mallinfo(arena+hblkhd)
           122 MiB available memory on the node where the printing process lives
------------------
     ethr =  1.00E-02,  avg # of iterations =  3.0

     negative rho (up, down):  2.355E-01 0.000E+00

     total cpu time spent up to now is        0.5 secs

     total energy              =      -2.20974881 Ry
     estimated scf accuracy    <       0.05645388 Ry

     iteration #  2     ecut=    10.00 Ry     beta= 0.70
     Davidson diagonalization with overlap

---- Real-time Memory Report at c_bands before calling an iterative solver
           103 MiB given to the printing process from OS
             0 MiB allocation reported by mallinfo(arena+hblkhd)
           108 MiB available memory on the node where the printing process lives
------------------
     ethr =  2.82E-03,  avg # of iterations =  1.0

     negative rho (up, down):  2.412E-01 0.000E+00

     total cpu time spent up to now is        0.7 secs

     total energy              =      -2.21036911 Ry
     estimated scf accuracy    <       0.00111163 Ry

     iteration #  3     ecut=    10.00 Ry     beta= 0.70
     Davidson diagonalization with overlap

---- Real-time Memory Report at c_bands before calling an iterative solver
           107 MiB given to the printing process from OS
             0 MiB allocation reported by mallinfo(arena+hblkhd)
           105 MiB available memory on the node where the printing process lives
------------------
     ethr =  5.56E-05,  avg # of iterations = 14.0

     negative rho (up, down):  2.392E-01 0.000E+00

     total cpu time spent up to now is        1.0 secs

     total energy              =      -2.21149632 Ry
     estimated scf accuracy    <       0.00001862 Ry

     iteration #  4     ecut=    10.00 Ry     beta= 0.70
     Davidson diagonalization with overlap

---- Real-time Memory Report at c_bands before calling an iterative solver
           110 MiB given to the printing process from OS
             0 MiB allocation reported by mallinfo(arena+hblkhd)
           102 MiB available memory on the node where the printing process lives
------------------
     ethr =  9.31E-07,  avg # of iterations =  6.0

     negative rho (up, down):  2.393E-01 0.000E+00

     total cpu time spent up to now is        1.2 secs

     total energy              =      -2.21149109 Ry
     estimated scf accuracy    <       0.00000119 Ry

     iteration #  5     ecut=    10.00 Ry     beta= 0.70
     Davidson diagonalization with overlap

---- Real-time Memory Report at c_bands before calling an iterative solver
           114 MiB given to the printing process from OS
             0 MiB allocation reported by mallinfo(arena+hblkhd)
            99 MiB available memory on the node where the printing process lives
------------------
     ethr =  5.95E-08,  avg # of iterations =  3.0

     negative rho (up, down):  2.393E-01 0.000E+00

     total cpu time spent up to now is        1.5 secs

     total energy              =      -2.21146580 Ry
     estimated scf accuracy    <       0.00000008 Ry

     iteration #  6     ecut=    10.00 Ry     beta= 0.70
     Davidson diagonalization with overlap

---- Real-time Memory Report at c_bands before calling an iterative solver
           117 MiB given to the printing process from OS
             0 MiB allocation reported by mallinfo(arena+hblkhd)
           112 MiB available memory on the node where the printing process lives
------------------
     ethr =  3.86E-09,  avg # of iterations =  3.0

     negative rho (up, down):  2.393E-01 0.000E+00

     total cpu time spent up to now is        1.7 secs

     total energy              =      -2.21148453 Ry
     estimated scf accuracy    <       0.00000001 Ry

     iteration #  7     ecut=    10.00 Ry     beta= 0.70
     Davidson diagonalization with overlap

---- Real-time Memory Report at c_bands before calling an iterative solver
           121 MiB given to the printing process from OS
             0 MiB allocation reported by mallinfo(arena+hblkhd)
           108 MiB available memory on the node where the printing process lives
------------------
     ethr =  7.25E-10,  avg # of iterations =  4.0

     negative rho (up, down):  2.393E-01 0.000E+00

     total cpu time spent up to now is        2.0 secs

     total energy              =      -2.21147112 Ry
     estimated scf accuracy    <       0.00000006 Ry

     iteration #  8     ecut=    10.00 Ry     beta= 0.70
     Davidson diagonalization with overlap

---- Real-time Memory Report at c_bands before calling an iterative solver
           124 MiB given to the printing process from OS
             0 MiB allocation reported by mallinfo(arena+hblkhd)
           105 MiB available memory on the node where the printing process lives
------------------
     ethr =  7.25E-10,  avg # of iterations =  4.0

     negative rho (up, down):  2.393E-01 0.000E+00

     total cpu time spent up to now is        2.2 secs

     total energy              =      -2.21148798 Ry
     estimated scf accuracy    <       0.00000001 Ry

     iteration #  9     ecut=    10.00 Ry     beta= 0.70
     Davidson diagonalization with overlap

---- Real-time Memory Report at c_bands before calling an iterative solver
           128 MiB given to the printing process from OS
             0 MiB allocation reported by mallinfo(arena+hblkhd)
           101 MiB available memory on the node where the printing process lives
------------------
     ethr =  5.00E-10,  avg # of iterations =  4.0

     negative rho (up, down):  2.393E-01 0.000E+00

     total cpu time spent up to now is        2.5 secs

     total energy              =      -2.21150277 Ry
     estimated scf accuracy    <       0.00000007 Ry

     iteration # 10     ecut=    10.00 Ry     beta= 0.70
     Davidson diagonalization with overlap

---- Real-time Memory Report at c_bands before calling an iterative solver
           131 MiB given to the printing process from OS
             0 MiB allocation reported by mallinfo(arena+hblkhd)
            98 MiB available memory on the node where the printing process lives
------------------
     ethr =  5.00E-10,  avg # of iterations =  5.0

     negative rho (up, down):  2.392E-01 0.000E+00

     total cpu time spent up to now is        2.7 secs

     total energy              =      -2.21151855 Ry
     estimated scf accuracy    <       0.00000002 Ry

     iteration # 11     ecut=    10.00 Ry     beta= 0.70
     Davidson diagonalization with overlap

---- Real-time Memory Report at c_bands before calling an iterative solver
           131 MiB given to the printing process from OS
             0 MiB allocation reported by mallinfo(arena+hblkhd)
            98 MiB available memory on the node where the printing process lives
------------------
     ethr =  5.00E-10,  avg # of iterations =  3.0

     negative rho (up, down):  2.392E-01 0.000E+00

     total cpu time spent up to now is        2.9 secs

     total energy              =      -2.21151401 Ry
     estimated scf accuracy    <       0.00000002 Ry

     iteration # 12     ecut=    10.00 Ry     beta= 0.70
     Davidson diagonalization with overlap

---- Real-time Memory Report at c_bands before calling an iterative solver
           131 MiB given to the printing process from OS
             0 MiB allocation reported by mallinfo(arena+hblkhd)
            98 MiB available memory on the node where the printing process lives
------------------
     ethr =  5.00E-10,  avg # of iterations =  3.0

     negative rho (up, down):  2.393E-01 0.000E+00

     total cpu time spent up to now is        3.2 secs

     total energy              =      -2.21148047 Ry
     estimated scf accuracy    <       0.00000001 Ry

     iteration # 13     ecut=    10.00 Ry     beta= 0.70
     Davidson diagonalization with overlap

---- Real-time Memory Report at c_bands before calling an iterative solver
           131 MiB given to the printing process from OS
             0 MiB allocation reported by mallinfo(arena+hblkhd)
            98 MiB available memory on the node where the printing process lives
------------------
     ethr =  5.00E-10,  avg # of iterations =  3.0

     negative rho (up, down):  2.392E-01 0.000E+00

     total cpu time spent up to now is        3.4 secs

     End of self-consistent calculation

          k =-0.5000-0.5000-0.5000 ( 14400 PWs)   bands (ev):

    -9.6035  -1.5403

     occupation numbers 
     1.0000   0.0000

     highest occupied, lowest unoccupied level (ev):    -9.6035   -1.5403

!    total energy              =      -2.21150827 Ry
     estimated scf accuracy    <          9.6E-09 Ry

     The total energy is the sum of the following terms:
     one-electron contribution =      -3.60344610 Ry
     hartree contribution      =       1.94999090 Ry
     xc contribution           =      -1.23865843 Ry
     ewald contribution        =       0.68060536 Ry

     convergence has been achieved in  13 iterations

     Forces acting on atoms (cartesian axes, Ry/au):

     atom    1 type  1   force =     0.18290171    0.00000000    0.00000000
     atom    2 type  1   force =    -0.18290171    0.00000000    0.00000000
     The non-local contrib.  to forces
     atom    1 type  1   force =     0.06328206    0.00000000    0.00000000
     atom    2 type  1   force =    -0.06287734    0.00000000    0.00000000
     The ionic contribution  to forces
     atom    1 type  1   force =    -0.55946387    0.00000000   -0.00000000
     atom    2 type  1   force =     0.55946387    0.00000000   -0.00000000
     The local contribution  to forces
     atom    1 type  1   force =     0.67891071    0.00000000    0.00000000
     atom    2 type  1   force =    -0.67894178    0.00000000    0.00000000
     The core correction contribution to forces
     atom    1 type  1   force =     0.00000000    0.00000000    0.00000000
     atom    2 type  1   force =     0.00000000    0.00000000    0.00000000
     The Hubbard contrib.    to forces
     atom    1 type  1   force =     0.00000000    0.00000000    0.00000000
     atom    2 type  1   force =     0.00000000    0.00000000    0.00000000
     The SCF correction term to forces
     atom    1 type  1   force =     0.00004453   -0.00000000    0.00000000
     atom    2 type  1   force =    -0.00067476    0.00000000   -0.00000000

     Total force =     0.258662     Total SCF correction =     0.000676

     BFGS Geometry Optimization
     Energy error            =      0.0E+00 Ry
     Gradient error          =      1.8E-01 Ry/Bohr

     number of scf cycles    =   1
     number of bfgs steps    =   0

     energy             new  =      -2.2115082653 Ry

     new trust radius        =       0.1829017149 bohr
     new conv_thr            =       0.0000000100 Ry


ATOMIC_POSITIONS (angstrom)
H             0.0967874194        0.0000000000        0.0000000000
H             0.9032125806        0.0000000000        0.0000000000



     Writing config-only to output data dir ./.save/
     NEW-OLD atomic charge density approx. for the potential

     negative rho (up, down):  2.371E-01 0.000E+00

     total cpu time spent up to now is        3.6 secs

     Self-consistent Calculation

     iteration #  1     ecut=    10.00 Ry     beta= 0.70
     Davidson diagonalization with overlap

---- Real-time Memory Report at c_bands before calling an iterative solver
           133 MiB given to the printing process from OS
             0 MiB allocation reported by mallinfo(arena+hblkhd)
           177 MiB available memory on the node where the printing process lives
------------------
     ethr =  1.00E-06,  avg # of iterations = 10.0

     negative rho (up, down):  2.859E-01 0.000E+00

     total cpu time spent up to now is        3.9 secs

     total energy              =      -2.25730471 Ry
     estimated scf accuracy    <       0.00569933 Ry

     iteration #  2     ecut=    10.00 Ry     beta= 0.70
     Davidson diagonalization with overlap

---- Real-time Memory Report at c_bands before calling an iterative solver
           133 MiB given to the printing process from OS
             0 MiB allocation reported by mallinfo(arena+hblkhd)
           139 MiB available memory on the node where the printing process lives
------------------
     ethr =  2.85E-04,  avg # of iterations =  2.0

     negative rho (up, down):  2.960E-01 0.000E+00

     total cpu time spent up to now is        4.1 secs

     total energy              =      -2.25336386 Ry
     estimated scf accuracy    <       0.00002988 Ry

     iteration #  3     ecut=    10.00 Ry     beta= 0.70
     Davidson diagonalization with overlap

---- Real-time Memory Report at c_bands before calling an iterative solver
           133 MiB given to the printing process from OS
             0 MiB allocation reported by mallinfo(arena+hblkhd)
           135 MiB available memory on the node where the printing process lives
------------------
     ethr =  1.49E-06,  avg # of iterations =  6.0

     negative rho (up, down):  2.996E-01 0.000E+00

     total cpu time spent up to now is        4.3 secs

     total energy              =      -2.25168529 Ry
     estimated scf accuracy    <       0.00000288 Ry

     iteration #  4     ecut=    10.00 Ry     beta= 0.70
     Davidson diagonalization with overlap

---- Real-time Memory Report at c_bands before calling an iterative solver
           133 MiB given to the printing process from OS
             0 MiB allocation reported by mallinfo(arena+hblkhd)
           132 MiB available memory on the node where the printing process lives
------------------
     ethr =  1.44E-07,  avg # of iterations =  3.0

     negative rho (up, down):  2.997E-01 0.000E+00

     total cpu time spent up to now is        4.6 secs

     total energy              =      -2.25163943 Ry
     estimated scf accuracy    <       0.00000053 Ry

     iteration #  5     ecut=    10.00 Ry     beta= 0.70
     Davidson diagonalization with overlap

---- Real-time Memory Report at c_bands before calling an iterative solver
           133 MiB given to the printing process from OS
             0 MiB allocation reported by mallinfo(arena+hblkhd)
           128 MiB available memory on the node where the printing process lives
------------------
     ethr =  2.64E-08,  avg # of iterations =  4.0

     negative rho (up, down):  2.998E-01 0.000E+00

     total cpu time spent up to now is        4.8 secs

     total energy              =      -2.25159186 Ry
     estimated scf accuracy    <       0.00000441 Ry

     iteration #  6     ecut=    10.00 Ry     beta= 0.70
     Davidson diagonalization with overlap

---- Real-time Memory Report at c_bands before calling an iterative solver
           133 MiB given to the printing process from OS
             0 MiB allocation reported by mallinfo(arena+hblkhd)
           125 MiB available memory on the node where the printing process lives
------------------
     ethr =  2.64E-08,  avg # of iterations =  3.0

     negative rho (up, down):  2.998E-01 0.000E+00

     total cpu time spent up to now is        5.0 secs

     total energy              =      -2.25154502 Ry
     estimated scf accuracy    <       0.00000383 Ry

     iteration #  7     ecut=    10.00 Ry     beta= 0.70
     Davidson diagonalization with overlap

---- Real-time Memory Report at c_bands before calling an iterative solver
           133 MiB given to the printing process from OS
             0 MiB allocation reported by mallinfo(arena+hblkhd)
           121 MiB available memory on the node where the printing process lives
------------------
     ethr =  2.64E-08,  avg # of iterations =  4.0

     negative rho (up, down):  2.998E-01 0.000E+00

     total cpu time spent up to now is        5.2 secs

     total energy              =      -2.25155974 Ry
     estimated scf accuracy    <       0.00000011 Ry

     iteration #  8     ecut=    10.00 Ry     beta= 0.70
     Davidson diagonalization with overlap

---- Real-time Memory Report at c_bands before calling an iterative solver
           133 MiB given to the printing process from OS
             0 MiB allocation reported by mallinfo(arena+hblkhd)
           118 MiB available memory on the node where the printing process lives
------------------
     ethr =  5.68E-09,  avg # of iterations =  4.0

     negative rho (up, down):  2.998E-01 0.000E+00

     total cpu time spent up to now is        5.5 secs

     total energy              =      -2.25158027 Ry
     estimated scf accuracy    <       0.00000363 Ry

     iteration #  9     ecut=    10.00 Ry     beta= 0.70
     Davidson diagonalization with overlap

---- Real-time Memory Report at c_bands before calling an iterative solver
           133 MiB given to the printing process from OS
             0 MiB allocation reported by mallinfo(arena+hblkhd)
           114 MiB available memory on the node where the printing process lives
------------------
     ethr =  5.68E-09,  avg # of iterations =  1.0

     negative rho (up, down):  2.998E-01 0.000E+00

     total cpu time spent up to now is        5.7 secs

     total energy              =      -2.25156009 Ry
     estimated scf accuracy    <       0.00000361 Ry

     iteration # 10     ecut=    10.00 Ry     beta= 0.70
     Davidson diagonalization with overlap

---- Real-time Memory Report at c_bands before calling an iterative solver
           134 MiB given to the printing process from OS
             0 MiB allocation reported by mallinfo(arena+hblkhd)
           111 MiB available memory on the node where the printing process lives
------------------
     ethr =  5.68E-09,  avg # of iterations =  2.0

     negative rho (up, down):  2.999E-01 0.000E+00

     total cpu time spent up to now is        5.9 secs

     total energy              =      -2.25156778 Ry
     estimated scf accuracy    <       0.00000380 Ry

     iteration # 11     ecut=    10.00 Ry     beta= 0.70
     Davidson diagonalization with overlap

---- Real-time Memory Report at c_bands before calling an iterative solver
           134 MiB given to the printing process from OS
             0 MiB allocation reported by mallinfo(arena+hblkhd)
           111 MiB available memory on the node where the printing process lives
------------------
     ethr =  5.68E-09,  avg # of iterations =  3.0

     negative rho (up, down):  3.000E-01 0.000E+00

     total cpu time spent up to now is        6.1 secs

     total energy              =      -2.25147664 Ry
     estimated scf accuracy    <       0.00000285 Ry

     iteration # 12     ecut=    10.00 Ry     beta= 0.70
     Davidson diagonalization with overlap

---- Real-time Memory Report at c_bands before calling an iterative solver
           134 MiB given to the printing process from OS
             0 MiB allocation reported by mallinfo(arena+hblkhd)
           111 MiB available memory on the node where the printing process lives
------------------
     ethr =  5.68E-09,  avg # of iterations =  4.0

     negative rho (up, down):  3.000E-01 0.000E+00

     total cpu time spent up to now is        6.4 secs

     total energy              =      -2.25146687 Ry
     estimated scf accuracy    <       0.00000217 Ry

     iteration # 13     ecut=    10.00 Ry     beta= 0.70
     Davidson diagonalization with overlap

---- Real-time Memory Report at c_bands before calling an iterative solver
           134 MiB given to the printing process from OS
             0 MiB allocation reported by mallinfo(arena+hblkhd)
           111 MiB available memory on the node where the printing process lives
------------------
     ethr =  5.68E-09,  avg # of iterations =  2.0

     negative rho (up, down):  2.996E-01 0.000E+00

     total cpu time spent up to now is        6.6 secs

     total energy              =      -2.25171089 Ry
     estimated scf accuracy    <       0.00000260 Ry

     iteration # 14     ecut=    10.00 Ry     beta= 0.70
     Davidson diagonalization with overlap

---- Real-time Memory Report at c_bands before calling an iterative solver
           134 MiB given to the printing process from OS
             0 MiB allocation reported by mallinfo(arena+hblkhd)
           111 MiB available memory on the node where the printing process lives
------------------
     ethr =  5.68E-09,  avg # of iterations =  4.0

     negative rho (up, down):  2.996E-01 0.000E+00

     total cpu time spent up to now is        6.8 secs

     total energy              =      -2.25169745 Ry
     estimated scf accuracy    <       0.00000040 Ry

     iteration # 15     ecut=    10.00 Ry     beta= 0.70
     Davidson diagonalization with overlap

---- Real-time Memory Report at c_bands before calling an iterative solver
           134 MiB given to the printing process from OS
             0 MiB allocation reported by mallinfo(arena+hblkhd)
           111 MiB available memory on the node where the printing process lives
------------------
     ethr =  5.68E-09,  avg # of iterations =  3.0

     negative rho (up, down):  2.996E-01 0.000E+00

     total cpu time spent up to now is        7.1 secs

     total energy              =      -2.25167300 Ry
     estimated scf accuracy    <       0.00000048 Ry

     iteration # 16     ecut=    10.00 Ry     beta= 0.70
     Davidson diagonalization with overlap

---- Real-time Memory Report at c_bands before calling an iterative solver
           134 MiB given to the printing process from OS
             0 MiB allocation reported by mallinfo(arena+hblkhd)
           111 MiB available memory on the node where the printing process lives
------------------
     ethr =  5.68E-09,  avg # of iterations =  4.0

     negative rho (up, down):  2.996E-01 0.000E+00

     total cpu time spent up to now is        7.3 secs

     total energy              =      -2.25168254 Ry
     estimated scf accuracy    <       0.00000091 Ry

     iteration # 17     ecut=    10.00 Ry     beta= 0.70
     Davidson diagonalization with overlap

---- Real-time Memory Report at c_bands before calling an iterative solver
           134 MiB given to the printing process from OS
             0 MiB allocation reported by mallinfo(arena+hblkhd)
           111 MiB available memory on the node where the printing process lives
------------------
     ethr =  5.68E-09,  avg # of iterations =  2.0

     negative rho (up, down):  2.998E-01 0.000E+00

     total cpu time spent up to now is        7.5 secs

     total energy              =      -2.25158236 Ry
     estimated scf accuracy    <       0.00000077 Ry

     iteration # 18     ecut=    10.00 Ry     beta= 0.70
     Davidson diagonalization with overlap

---- Real-time Memory Report at c_bands before calling an iterative solver
           134 MiB given to the printing process from OS
             0 MiB allocation reported by mallinfo(arena+hblkhd)
           111 MiB available memory on the node where the printing process lives
------------------
     ethr =  5.68E-09,  avg # of iterations =  5.0

     negative rho (up, down):  2.998E-01 0.000E+00

     total cpu time spent up to now is        7.8 secs

     total energy              =      -2.25159785 Ry
     estimated scf accuracy    <       0.00000217 Ry

     iteration # 19     ecut=    10.00 Ry     beta= 0.70
     Davidson diagonalization with overlap

---- Real-time Memory Report at c_bands before calling an iterative solver
           134 MiB given to the printing process from OS
             0 MiB allocation reported by mallinfo(arena+hblkhd)
           111 MiB available memory on the node where the printing process lives
------------------
     ethr =  5.68E-09,  avg # of iterations =  3.0

     negative rho (up, down):  2.999E-01 0.000E+00

     total cpu time spent up to now is        8.0 secs

     total energy              =      -2.25149825 Ry
     estimated scf accuracy    <       0.00000219 Ry

     iteration # 20     ecut=    10.00 Ry     beta= 0.70
     Davidson diagonalization with overlap

---- Real-time Memory Report at c_bands before calling an iterative solver
           134 MiB given to the printing process from OS
             0 MiB allocation reported by mallinfo(arena+hblkhd)
           111 MiB available memory on the node where the printing process lives
------------------
     ethr =  5.68E-09,  avg # of iterations =  4.0

     negative rho (up, down):  3.001E-01 0.000E+00

     total cpu time spent up to now is        8.2 secs

     total energy              =      -2.25147644 Ry
     estimated scf accuracy    <       0.00000270 Ry

     iteration # 21     ecut=    10.00 Ry     beta= 0.70
     Davidson diagonalization with overlap

---- Real-time Memory Report at c_bands before calling an iterative solver
           134 MiB given to the printing process from OS
             0 MiB allocation reported by mallinfo(arena+hblkhd)
           111 MiB available memory on the node where the printing process lives
------------------
     ethr =  5.68E-09,  avg # of iterations =  4.0

     negative rho (up, down):  3.000E-01 0.000E+00

     total cpu time spent up to now is        8.5 secs

     total energy              =      -2.25147372 Ry
     estimated scf accuracy    <       0.00000914 Ry

     iteration # 22     ecut=    10.00 Ry     beta= 0.70
     Davidson diagonalization with overlap

---- Real-time Memory Report at c_bands before calling an iterative solver
           134 MiB given to the printing process from OS
             0 MiB allocation reported by mallinfo(arena+hblkhd)
           111 MiB available memory on the node where the printing process lives
------------------
     ethr =  5.68E-09,  avg # of iterations =  4.0

     negative rho (up, down):  3.000E-01 0.000E+00

     total cpu time spent up to now is        8.7 secs

     total energy              =      -2.25148962 Ry
     estimated scf accuracy    <       0.00000611 Ry

     iteration # 23     ecut=    10.00 Ry     beta= 0.70
     Davidson diagonalization with overlap

---- Real-time Memory Report at c_bands before calling an iterative solver
           134 MiB given to the printing process from OS
             0 MiB allocation reported by mallinfo(arena+hblkhd)
           111 MiB available memory on the node where the printing process lives
------------------
     ethr =  5.68E-09,  avg # of iterations =  2.0

     negative rho (up, down):  3.000E-01 0.000E+00

     total cpu time spent up to now is        8.9 secs

     total energy              =      -2.25151304 Ry
     estimated scf accuracy    <       0.00000607 Ry

     iteration # 24     ecut=    10.00 Ry     beta= 0.70
     Davidson diagonalization with overlap

---- Real-time Memory Report at c_bands before calling an iterative solver
           134 MiB given to the printing process from OS
             0 MiB allocation reported by mallinfo(arena+hblkhd)
           111 MiB available memory on the node where the printing process lives
------------------
     ethr =  5.68E-09,  avg # of iterations =  3.0

     negative rho (up, down):  2.999E-01 0.000E+00

     total cpu time spent up to now is        9.2 secs

     total energy              =      -2.25155175 Ry
     estimated scf accuracy    <       0.00000607 Ry

     iteration # 25     ecut=    10.00 Ry     beta= 0.70
     Davidson diagonalization with overlap

---- Real-time Memory Report at c_bands before calling an iterative solver
           134 MiB given to the printing process from OS
             0 MiB allocation reported by mallinfo(arena+hblkhd)
           111 MiB available memory on the node where the printing process lives
------------------
     ethr =  5.68E-09,  avg # of iterations =  3.0

     negative rho (up, down):  2.998E-01 0.000E+00

     total cpu time spent up to now is        9.4 secs

     total energy              =      -2.25161625 Ry
     estimated scf accuracy    <       0.00000343 Ry

     iteration # 26     ecut=    10.00 Ry     beta= 0.70
     Davidson diagonalization with overlap

---- Real-time Memory Report at c_bands before calling an iterative solver
           134 MiB given to the printing process from OS
             0 MiB allocation reported by mallinfo(arena+hblkhd)
           111 MiB available memory on the node where the printing process lives
------------------
     ethr =  5.68E-09,  avg # of iterations =  4.0

     negative rho (up, down):  2.998E-01 0.000E+00

     total cpu time spent up to now is        9.6 secs

     total energy              =      -2.25156869 Ry
     estimated scf accuracy    <       0.00000036 Ry

     iteration # 27     ecut=    10.00 Ry     beta= 0.70
     Davidson diagonalization with overlap

---- Real-time Memory Report at c_bands before calling an iterative solver
           134 MiB given to the printing process from OS
             0 MiB allocation reported by mallinfo(arena+hblkhd)
           111 MiB available memory on the node where the printing process lives
------------------
     ethr =  5.68E-09,  avg # of iterations =  3.0

     negative rho (up, down):  2.998E-01 0.000E+00

     total cpu time spent up to now is        9.9 secs

     total energy              =      -2.25158047 Ry
     estimated scf accuracy    <       0.00000108 Ry

     iteration # 28     ecut=    10.00 Ry     beta= 0.70
     Davidson diagonalization with overlap

---- Real-time Memory Report at c_bands before calling an iterative solver
           134 MiB given to the printing process from OS
             0 MiB allocation reported by mallinfo(arena+hblkhd)
           111 MiB available memory on the node where the printing process lives
------------------
     ethr =  5.68E-09,  avg # of iterations =  3.0

     negative rho (up, down):  2.998E-01 0.000E+00

     total cpu time spent up to now is       10.1 secs

     total energy              =      -2.25158158 Ry
     estimated scf accuracy    <       0.00000110 Ry

     iteration # 29     ecut=    10.00 Ry     beta= 0.70
     Davidson diagonalization with overlap

---- Real-time Memory Report at c_bands before calling an iterative solver
           134 MiB given to the printing process from OS
             0 MiB allocation reported by mallinfo(arena+hblkhd)
           111 MiB available memory on the node where the printing process lives
------------------
     ethr =  5.68E-09,  avg # of iterations =  2.0

     negative rho (up, down):  2.999E-01 0.000E+00

     total cpu time spent up to now is       10.3 secs

     total energy              =      -2.25154796 Ry
     estimated scf accuracy    <       0.00000111 Ry

     iteration # 30     ecut=    10.00 Ry     beta= 0.70
     Davidson diagonalization with overlap

---- Real-time Memory Report at c_bands before calling an iterative solver
           134 MiB given to the printing process from OS
             0 MiB allocation reported by mallinfo(arena+hblkhd)
           111 MiB available memory on the node where the printing process lives
------------------
     ethr =  5.68E-09,  avg # of iterations =  3.0

     negative rho (up, down):  3.000E-01 0.000E+00

     total cpu time spent up to now is       10.6 secs

     total energy              =      -2.25152418 Ry
     estimated scf accuracy    <       0.00000116 Ry

     iteration # 31     ecut=    10.00 Ry     beta= 0.70
     Davidson diagonalization with overlap

---- Real-time Memory Report at c_bands before calling an iterative solver
           134 MiB given to the printing process from OS
             0 MiB allocation reported by mallinfo(arena+hblkhd)
           111 MiB available memory on the node where the printing process lives
------------------
     ethr =  5.68E-09,  avg # of iterations =  3.0

     negative rho (up, down):  3.000E-01 0.000E+00

     total cpu time spent up to now is       10.8 secs

     total energy              =      -2.25151641 Ry
     estimated scf accuracy    <       0.00000125 Ry

     iteration # 32     ecut=    10.00 Ry     beta= 0.70
     Davidson diagonalization with overlap

---- Real-time Memory Report at c_bands before calling an iterative solver
           134 MiB given to the printing process from OS
             0 MiB allocation reported by mallinfo(arena+hblkhd)
           111 MiB available memory on the node where the printing process lives
------------------
     ethr =  5.68E-09,  avg # of iterations =  2.0

     negative rho (up, down):  3.000E-01 0.000E+00

     total cpu time spent up to now is       11.0 secs

     total energy              =      -2.25151371 Ry
     estimated scf accuracy    <       0.00000130 Ry

     iteration # 33     ecut=    10.00 Ry     beta= 0.70
     Davidson diagonalization with overlap

---- Real-time Memory Report at c_bands before calling an iterative solver
           134 MiB given to the printing process from OS
             0 MiB allocation reported by mallinfo(arena+hblkhd)
           111 MiB available memory on the node where the printing process lives
------------------
     ethr =  5.68E-09,  avg # of iterations =  3.0

     negative rho (up, down):  3.002E-01 0.000E+00

     total cpu time spent up to now is       11.3 secs

     total energy              =      -2.25144077 Ry
     estimated scf accuracy    <       0.00000181 Ry

     iteration # 34     ecut=    10.00 Ry     beta= 0.70
     Davidson diagonalization with overlap

---- Real-time Memory Report at c_bands before calling an iterative solver
           134 MiB given to the printing process from OS
             0 MiB allocation reported by mallinfo(arena+hblkhd)
           111 MiB available memory on the node where the printing process lives
------------------
     ethr =  5.68E-09,  avg # of iterations =  4.0

     negative rho (up, down):  3.004E-01 0.000E+00

     total cpu time spent up to now is       11.5 secs

     total energy              =      -2.25133101 Ry
     estimated scf accuracy    <       0.00000635 Ry

     iteration # 35     ecut=    10.00 Ry     beta= 0.70
     Davidson diagonalization with overlap

---- Real-time Memory Report at c_bands before calling an iterative solver
           134 MiB given to the printing process from OS
             0 MiB allocation reported by mallinfo(arena+hblkhd)
           111 MiB available memory on the node where the printing process lives
------------------
     ethr =  5.68E-09,  avg # of iterations =  4.0

     negative rho (up, down):  3.003E-01 0.000E+00

     total cpu time spent up to now is       11.8 secs

     total energy              =      -2.25138189 Ry
     estimated scf accuracy    <       0.00001055 Ry

     iteration # 36     ecut=    10.00 Ry     beta= 0.70
     Davidson diagonalization with overlap

---- Real-time Memory Report at c_bands before calling an iterative solver
           134 MiB given to the printing process from OS
             0 MiB allocation reported by mallinfo(arena+hblkhd)
           111 MiB available memory on the node where the printing process lives
------------------
     ethr =  5.68E-09,  avg # of iterations =  4.0

     negative rho (up, down):  3.000E-01 0.000E+00

     total cpu time spent up to now is       12.0 secs

     total energy              =      -2.25149496 Ry
     estimated scf accuracy    <       0.00000579 Ry

     iteration # 37     ecut=    10.00 Ry     beta= 0.70
     Davidson diagonalization with overlap

---- Real-time Memory Report at c_bands before calling an iterative solver
           134 MiB given to the printing process from OS
             0 MiB allocation reported by mallinfo(arena+hblkhd)
           111 MiB available memory on the node where the printing process lives
------------------
     ethr =  5.68E-09,  avg # of iterations =  4.0

     negative rho (up, down):  2.998E-01 0.000E+00

     total cpu time spent up to now is       12.2 secs

     total energy              =      -2.25153180 Ry
     estimated scf accuracy    <       0.00000405 Ry

     iteration # 38     ecut=    10.00 Ry     beta= 0.70
     Davidson diagonalization with overlap

---- Real-time Memory Report at c_bands before calling an iterative solver
           134 MiB given to the printing process from OS
             0 MiB allocation reported by mallinfo(arena+hblkhd)
           111 MiB available memory on the node where the printing process lives
------------------
     ethr =  5.68E-09,  avg # of iterations =  4.0

     negative rho (up, down):  2.997E-01 0.000E+00

     total cpu time spent up to now is       12.5 secs

     total energy              =      -2.25163119 Ry
     estimated scf accuracy    <       0.00000148 Ry

     iteration # 39     ecut=    10.00 Ry     beta= 0.70
     Davidson diagonalization with overlap

---- Real-time Memory Report at c_bands before calling an iterative solver
           134 MiB given to the printing process from OS
             0 MiB allocation reported by mallinfo(arena+hblkhd)
           111 MiB available memory on the node where the printing process lives
------------------
     ethr =  5.68E-09,  avg # of iterations =  4.0

     negative rho (up, down):  2.997E-01 0.000E+00

     total cpu time spent up to now is       12.7 secs

     total energy              =      -2.25163937 Ry
     estimated scf accuracy    <       0.00000021 Ry

     iteration # 40     ecut=    10.00 Ry     beta= 0.70
     Davidson diagonalization with overlap

---- Real-time Memory Report at c_bands before calling an iterative solver
           134 MiB given to the printing process from OS
             0 MiB allocation reported by mallinfo(arena+hblkhd)
           111 MiB available memory on the node where the printing process lives
------------------
     ethr =  5.68E-09,  avg # of iterations =  3.0

     negative rho (up, down):  2.997E-01 0.000E+00

     total cpu time spent up to now is       12.9 secs

     total energy              =      -2.25162633 Ry
     estimated scf accuracy    <       0.00000033 Ry

     iteration # 41     ecut=    10.00 Ry     beta= 0.70
     Davidson diagonalization with overlap

---- Real-time Memory Report at c_bands before calling an iterative solver
           134 MiB given to the printing process from OS
             0 MiB allocation reported by mallinfo(arena+hblkhd)
           111 MiB available memory on the node where the printing process lives
------------------
     ethr =  5.68E-09,  avg # of iterations =  3.0

     negative rho (up, down):  2.997E-01 0.000E+00

     total cpu time spent up to now is       13.2 secs

     total energy              =      -2.25164006 Ry
     estimated scf accuracy    <       0.00000028 Ry

     iteration # 42     ecut=    10.00 Ry     beta= 0.70
     Davidson diagonalization with overlap

---- Real-time Memory Report at c_bands before calling an iterative solver
           134 MiB given to the printing process from OS
             0 MiB allocation reported by mallinfo(arena+hblkhd)
           111 MiB available memory on the node where the printing process lives
------------------
     ethr =  5.68E-09,  avg # of iterations =  2.0

     negative rho (up, down):  2.997E-01 0.000E+00

     total cpu time spent up to now is       13.5 secs

     total energy              =      -2.25165387 Ry
     estimated scf accuracy    <       0.00000028 Ry

     iteration # 43     ecut=    10.00 Ry     beta= 0.70
     Davidson diagonalization with overlap

---- Real-time Memory Report at c_bands before calling an iterative solver
           134 MiB given to the printing process from OS
             0 MiB allocation reported by mallinfo(arena+hblkhd)
           111 MiB available memory on the node where the printing process lives
------------------
     ethr =  5.68E-09,  avg # of iterations =  3.0

     negative rho (up, down):  2.997E-01 0.000E+00

     total cpu time spent up to now is       13.7 secs

     total energy              =      -2.25164701 Ry
     estimated scf accuracy    <       0.00000026 Ry

     iteration # 44     ecut=    10.00 Ry     beta= 0.70
     Davidson diagonalization with overlap

---- Real-time Memory Report at c_bands before calling an iterative solver
           134 MiB given to the printing process from OS
             0 MiB allocation reported by mallinfo(arena+hblkhd)
           111 MiB available memory on the node where the printing process lives
------------------
     ethr =  5.68E-09,  avg # of iterations =  3.0

     negative rho (up, down):  2.997E-01 0.000E+00

     total cpu time spent up to now is       13.9 secs

     total energy              =      -2.25165283 Ry
     estimated scf accuracy    <       0.00000024 Ry

     iteration # 45     ecut=    10.00 Ry     beta= 0.70
     Davidson diagonalization with overlap

---- Real-time Memory Report at c_bands before calling an iterative solver
           134 MiB given to the printing process from OS
             0 MiB allocation reported by mallinfo(arena+hblkhd)
           111 MiB available memory on the node where the printing process lives
------------------
     ethr =  5.68E-09,  avg # of iterations =  2.0

     negative rho (up, down):  2.997E-01 0.000E+00

     total cpu time spent up to now is       14.1 secs

     total energy              =      -2.25167491 Ry
     estimated scf accuracy    <       0.00000035 Ry

     iteration # 46     ecut=    10.00 Ry     beta= 0.70
     Davidson diagonalization with overlap

---- Real-time Memory Report at c_bands before calling an iterative solver
           134 MiB given to the printing process from OS
             0 MiB allocation reported by mallinfo(arena+hblkhd)
           111 MiB available memory on the node where the printing process lives
------------------
     ethr =  5.68E-09,  avg # of iterations =  4.0

     negative rho (up, down):  2.997E-01 0.000E+00

     total cpu time spent up to now is       14.4 secs

     total energy              =      -2.25163003 Ry
     estimated scf accuracy    <       0.00000071 Ry

     iteration # 47     ecut=    10.00 Ry     beta= 0.70
     Davidson diagonalization with overlap

---- Real-time Memory Report at c_bands before calling an iterative solver
           134 MiB given to the printing process from OS
             0 MiB allocation reported by mallinfo(arena+hblkhd)
           111 MiB available memory on the node where the printing process lives
------------------
     ethr =  5.68E-09,  avg # of iterations =  4.0

     negative rho (up, down):  2.997E-01 0.000E+00

     total cpu time spent up to now is       14.6 secs

     total energy              =      -2.25163888 Ry
     estimated scf accuracy    <       0.00000041 Ry

     iteration # 48     ecut=    10.00 Ry     beta= 0.70
     Davidson diagonalization with overlap

---- Real-time Memory Report at c_bands before calling an iterative solver
           134 MiB given to the printing process from OS
             0 MiB allocation reported by mallinfo(arena+hblkhd)
           111 MiB available memory on the node where the printing process lives
------------------
     ethr =  5.68E-09,  avg # of iterations =  5.0

     negative rho (up, down):  2.997E-01 0.000E+00

     total cpu time spent up to now is       14.9 secs

     total energy              =      -2.25165684 Ry
     estimated scf accuracy    <       0.00000173 Ry

     iteration # 49     ecut=    10.00 Ry     beta= 0.70
     Davidson diagonalization with overlap

---- Real-time Memory Report at c_bands before calling an iterative solver
           134 MiB given to the printing process from OS
             0 MiB allocation reported by mallinfo(arena+hblkhd)
           111 MiB available memory on the node where the printing process lives
------------------
     ethr =  5.68E-09,  avg # of iterations =  3.0

     negative rho (up, down):  2.997E-01 0.000E+00

     total cpu time spent up to now is       15.1 secs

     total energy              =      -2.25163474 Ry
     estimated scf accuracy    <       0.00000142 Ry

     iteration # 50     ecut=    10.00 Ry     beta= 0.70
     Davidson diagonalization with overlap

---- Real-time Memory Report at c_bands before calling an iterative solver
           134 MiB given to the printing process from OS
             0 MiB allocation reported by mallinfo(arena+hblkhd)
           111 MiB available memory on the node where the printing process lives
------------------
     ethr =  5.68E-09,  avg # of iterations =  4.0

     negative rho (up, down):  2.997E-01 0.000E+00

     total cpu time spent up to now is       15.4 secs

     total energy              =      -2.25159004 Ry
     estimated scf accuracy    <       0.00000398 Ry

     iteration # 51     ecut=    10.00 Ry     beta= 0.70
     Davidson diagonalization with overlap

---- Real-time Memory Report at c_bands before calling an iterative solver
           134 MiB given to the printing process from OS
             0 MiB allocation reported by mallinfo(arena+hblkhd)
           111 MiB available memory on the node where the printing process lives
------------------
     ethr =  5.68E-09,  avg # of iterations =  5.0

     negative rho (up, down):  2.997E-01 0.000E+00

     total cpu time spent up to now is       15.6 secs

     total energy              =      -2.25161760 Ry
     estimated scf accuracy    <       0.00000035 Ry

     iteration # 52     ecut=    10.00 Ry     beta= 0.70
     Davidson diagonalization with overlap

---- Real-time Memory Report at c_bands before calling an iterative solver
           134 MiB given to the printing process from OS
             0 MiB allocation reported by mallinfo(arena+hblkhd)
           111 MiB available memory on the node where the printing process lives
------------------
     ethr =  5.68E-09,  avg # of iterations =  4.0

     negative rho (up, down):  2.997E-01 0.000E+00

     total cpu time spent up to now is       15.8 secs

     total energy              =      -2.25164545 Ry
     estimated scf accuracy    <       0.00000098 Ry

     iteration # 53     ecut=    10.00 Ry     beta= 0.70
     Davidson diagonalization with overlap

---- Real-time Memory Report at c_bands before calling an iterative solver
           134 MiB given to the printing process from OS
             0 MiB allocation reported by mallinfo(arena+hblkhd)
           111 MiB available memory on the node where the printing process lives
------------------
     ethr =  5.68E-09,  avg # of iterations =  4.0

     negative rho (up, down):  2.997E-01 0.000E+00

     total cpu time spent up to now is       16.1 secs

     total energy              =      -2.25164808 Ry
     estimated scf accuracy    <       0.00000186 Ry

     iteration # 54     ecut=    10.00 Ry     beta= 0.70
     Davidson diagonalization with overlap

---- Real-time Memory Report at c_bands before calling an iterative solver
           134 MiB given to the printing process from OS
             0 MiB allocation reported by mallinfo(arena+hblkhd)
           111 MiB available memory on the node where the printing process lives
------------------
     ethr =  5.68E-09,  avg # of iterations =  4.0

     negative rho (up, down):  2.997E-01 0.000E+00

     total cpu time spent up to now is       16.3 secs

     total energy              =      -2.25164586 Ry
     estimated scf accuracy    <       0.00000083 Ry

     iteration # 55     ecut=    10.00 Ry     beta= 0.70
     Davidson diagonalization with overlap

---- Real-time Memory Report at c_bands before calling an iterative solver
           134 MiB given to the printing process from OS
             0 MiB allocation reported by mallinfo(arena+hblkhd)
           111 MiB available memory on the node where the printing process lives
------------------
     ethr =  5.68E-09,  avg # of iterations =  2.0

     negative rho (up, down):  2.997E-01 0.000E+00

     total cpu time spent up to now is       16.5 secs

     total energy              =      -2.25164257 Ry
     estimated scf accuracy    <       0.00000095 Ry

     iteration # 56     ecut=    10.00 Ry     beta= 0.70
     Davidson diagonalization with overlap

---- Real-time Memory Report at c_bands before calling an iterative solver
           134 MiB given to the printing process from OS
             0 MiB allocation reported by mallinfo(arena+hblkhd)
           111 MiB available memory on the node where the printing process lives
------------------
     ethr =  5.68E-09,  avg # of iterations =  3.0

     negative rho (up, down):  2.997E-01 0.000E+00

     total cpu time spent up to now is       16.8 secs

     total energy              =      -2.25164113 Ry
     estimated scf accuracy    <       0.00000120 Ry

     iteration # 57     ecut=    10.00 Ry     beta= 0.70
     Davidson diagonalization with overlap

---- Real-time Memory Report at c_bands before calling an iterative solver
           134 MiB given to the printing process from OS
             0 MiB allocation reported by mallinfo(arena+hblkhd)
           111 MiB available memory on the node where the printing process lives
------------------
     ethr =  5.68E-09,  avg # of iterations =  2.0

     negative rho (up, down):  2.998E-01 0.000E+00

     total cpu time spent up to now is       17.1 secs

     total energy              =      -2.25163192 Ry
     estimated scf accuracy    <       0.00000120 Ry

     iteration # 58     ecut=    10.00 Ry     beta= 0.70
     Davidson diagonalization with overlap

---- Real-time Memory Report at c_bands before calling an iterative solver
           134 MiB given to the printing process from OS
             0 MiB allocation reported by mallinfo(arena+hblkhd)
           111 MiB available memory on the node where the printing process lives
------------------
     ethr =  5.68E-09,  avg # of iterations =  3.0

     negative rho (up, down):  2.998E-01 0.000E+00

     total cpu time spent up to now is       17.3 secs

     total energy              =      -2.25158560 Ry
     estimated scf accuracy    <       0.00000067 Ry

     iteration # 59     ecut=    10.00 Ry     beta= 0.70
     Davidson diagonalization with overlap

---- Real-time Memory Report at c_bands before calling an iterative solver
           134 MiB given to the printing process from OS
             0 MiB allocation reported by mallinfo(arena+hblkhd)
           111 MiB available memory on the node where the printing process lives
------------------
     ethr =  5.68E-09,  avg # of iterations =  3.0

     negative rho (up, down):  2.997E-01 0.000E+00

     total cpu time spent up to now is       17.6 secs

     total energy              =      -2.25162790 Ry
     estimated scf accuracy    <       0.00000048 Ry

     iteration # 60     ecut=    10.00 Ry     beta= 0.70
     Davidson diagonalization with overlap

---- Real-time Memory Report at c_bands before calling an iterative solver
           134 MiB given to the printing process from OS
             0 MiB allocation reported by mallinfo(arena+hblkhd)
           111 MiB available memory on the node where the printing process lives
------------------
     ethr =  5.68E-09,  avg # of iterations =  3.0

     negative rho (up, down):  2.997E-01 0.000E+00

     total cpu time spent up to now is       17.8 secs

     total energy              =      -2.25161909 Ry
     estimated scf accuracy    <       0.00000031 Ry

     iteration # 61     ecut=    10.00 Ry     beta= 0.70
     Davidson diagonalization with overlap

---- Real-time Memory Report at c_bands before calling an iterative solver
           134 MiB given to the printing process from OS
             0 MiB allocation reported by mallinfo(arena+hblkhd)
           111 MiB available memory on the node where the printing process lives
------------------
     ethr =  5.68E-09,  avg # of iterations =  3.0

     negative rho (up, down):  2.998E-01 0.000E+00

     total cpu time spent up to now is       18.0 secs

     total energy              =      -2.25160413 Ry
     estimated scf accuracy    <       0.00000018 Ry

     iteration # 62     ecut=    10.00 Ry     beta= 0.70
     Davidson diagonalization with overlap

---- Real-time Memory Report at c_bands before calling an iterative solver
           134 MiB given to the printing process from OS
             0 MiB allocation reported by mallinfo(arena+hblkhd)
           111 MiB available memory on the node where the printing process lives
------------------
     ethr =  5.68E-09,  avg # of iterations =  3.0

     negative rho (up, down):  3.000E-01 0.000E+00

     total cpu time spent up to now is       18.3 secs

     total energy              =      -2.25151817 Ry
     estimated scf accuracy    <       0.00000016 Ry

     iteration # 63     ecut=    10.00 Ry     beta= 0.70
     Davidson diagonalization with overlap

---- Real-time Memory Report at c_bands before calling an iterative solver
           134 MiB given to the printing process from OS
             0 MiB allocation reported by mallinfo(arena+hblkhd)
           111 MiB available memory on the node where the printing process lives
------------------
     ethr =  5.68E-09,  avg # of iterations =  3.0

     negative rho (up, down):  3.000E-01 0.000E+00

     total cpu time spent up to now is       18.5 secs

     total energy              =      -2.25155559 Ry
     estimated scf accuracy    <       0.00000297 Ry

     iteration # 64     ecut=    10.00 Ry     beta= 0.70
     Davidson diagonalization with overlap

---- Real-time Memory Report at c_bands before calling an iterative solver
           134 MiB given to the printing process from OS
             0 MiB allocation reported by mallinfo(arena+hblkhd)
           111 MiB available memory on the node where the printing process lives
------------------
     ethr =  5.68E-09,  avg # of iterations =  3.0

     negative rho (up, down):  2.997E-01 0.000E+00

     total cpu time spent up to now is       18.7 secs

     total energy              =      -2.25165164 Ry
     estimated scf accuracy    <       0.00000153 Ry

     iteration # 65     ecut=    10.00 Ry     beta= 0.70
     Davidson diagonalization with overlap

---- Real-time Memory Report at c_bands before calling an iterative solver
           134 MiB given to the printing process from OS
             0 MiB allocation reported by mallinfo(arena+hblkhd)
           111 MiB available memory on the node where the printing process lives
------------------
     ethr =  5.68E-09,  avg # of iterations =  4.0

     negative rho (up, down):  2.998E-01 0.000E+00

     total cpu time spent up to now is       19.0 secs

     total energy              =      -2.25157339 Ry
     estimated scf accuracy    <       0.00000077 Ry

     iteration # 66     ecut=    10.00 Ry     beta= 0.70
     Davidson diagonalization with overlap

---- Real-time Memory Report at c_bands before calling an iterative solver
           134 MiB given to the printing process from OS
             0 MiB allocation reported by mallinfo(arena+hblkhd)
           111 MiB available memory on the node where the printing process lives
------------------
     ethr =  5.68E-09,  avg # of iterations =  3.0

     negative rho (up, down):  2.998E-01 0.000E+00

     total cpu time spent up to now is       19.2 secs

     total energy              =      -2.25158225 Ry
     estimated scf accuracy    <       0.00000149 Ry

     iteration # 67     ecut=    10.00 Ry     beta= 0.70
     Davidson diagonalization with overlap

---- Real-time Memory Report at c_bands before calling an iterative solver
           134 MiB given to the printing process from OS
             0 MiB allocation reported by mallinfo(arena+hblkhd)
           111 MiB available memory on the node where the printing process lives
------------------
     ethr =  5.68E-09,  avg # of iterations =  3.0

     negative rho (up, down):  2.998E-01 0.000E+00

     total cpu time spent up to now is       19.4 secs

     total energy              =      -2.25157314 Ry
     estimated scf accuracy    <       0.00000201 Ry

     iteration # 68     ecut=    10.00 Ry     beta= 0.70
     Davidson diagonalization with overlap

---- Real-time Memory Report at c_bands before calling an iterative solver
           134 MiB given to the printing process from OS
             0 MiB allocation reported by mallinfo(arena+hblkhd)
           111 MiB available memory on the node where the printing process lives
------------------
     ethr =  5.68E-09,  avg # of iterations =  3.0

     negative rho (up, down):  2.997E-01 0.000E+00

     total cpu time spent up to now is       19.7 secs

     total energy              =      -2.25160540 Ry
     estimated scf accuracy    <       0.00000145 Ry

     iteration # 69     ecut=    10.00 Ry     beta= 0.70
     Davidson diagonalization with overlap

---- Real-time Memory Report at c_bands before calling an iterative solver
           134 MiB given to the printing process from OS
             0 MiB allocation reported by mallinfo(arena+hblkhd)
           111 MiB available memory on the node where the printing process lives
------------------
     ethr =  5.68E-09,  avg # of iterations =  4.0

     negative rho (up, down):  2.997E-01 0.000E+00

     total cpu time spent up to now is       19.9 secs

     total energy              =      -2.25166668 Ry
     estimated scf accuracy    <       0.00000314 Ry

     iteration # 70     ecut=    10.00 Ry     beta= 0.70
     Davidson diagonalization with overlap

---- Real-time Memory Report at c_bands before calling an iterative solver
           134 MiB given to the printing process from OS
             0 MiB allocation reported by mallinfo(arena+hblkhd)
           111 MiB available memory on the node where the printing process lives
------------------
     ethr =  5.68E-09,  avg # of iterations =  4.0

     negative rho (up, down):  2.998E-01 0.000E+00

     total cpu time spent up to now is       20.1 secs

     total energy              =      -2.25156763 Ry
     estimated scf accuracy    <       0.00000549 Ry

     iteration # 71     ecut=    10.00 Ry     beta= 0.70
     Davidson diagonalization with overlap

---- Real-time Memory Report at c_bands before calling an iterative solver
           134 MiB given to the printing process from OS
             0 MiB allocation reported by mallinfo(arena+hblkhd)
           111 MiB available memory on the node where the printing process lives
------------------
     ethr =  5.68E-09,  avg # of iterations =  4.0

     negative rho (up, down):  2.998E-01 0.000E+00

     total cpu time spent up to now is       20.4 secs

     total energy              =      -2.25160518 Ry
     estimated scf accuracy    <       0.00000213 Ry

     iteration # 72     ecut=    10.00 Ry     beta= 0.70
     Davidson diagonalization with overlap

---- Real-time Memory Report at c_bands before calling an iterative solver
           134 MiB given to the printing process from OS
             0 MiB allocation reported by mallinfo(arena+hblkhd)
           111 MiB available memory on the node where the printing process lives
------------------
     ethr =  5.68E-09,  avg # of iterations =  4.0

     negative rho (up, down):  2.998E-01 0.000E+00

     total cpu time spent up to now is       20.6 secs

     total energy              =      -2.25157610 Ry
     estimated scf accuracy    <       0.00000046 Ry

     iteration # 73     ecut=    10.00 Ry     beta= 0.70
     Davidson diagonalization with overlap

---- Real-time Memory Report at c_bands before calling an iterative solver
           134 MiB given to the printing process from OS
             0 MiB allocation reported by mallinfo(arena+hblkhd)
           111 MiB available memory on the node where the printing process lives
------------------
     ethr =  5.68E-09,  avg # of iterations =  4.0

     negative rho (up, down):  2.998E-01 0.000E+00

     total cpu time spent up to now is       20.8 secs

     total energy              =      -2.25156994 Ry
     estimated scf accuracy    <       0.00000004 Ry

     iteration # 74     ecut=    10.00 Ry     beta= 0.70
     Davidson diagonalization with overlap

---- Real-time Memory Report at c_bands before calling an iterative solver
           134 MiB given to the printing process from OS
             0 MiB allocation reported by mallinfo(arena+hblkhd)
           111 MiB available memory on the node where the printing process lives
------------------
     ethr =  2.08E-09,  avg # of iterations =  5.0

     negative rho (up, down):  2.999E-01 0.000E+00

     total cpu time spent up to now is       21.1 secs

     total energy              =      -2.25152275 Ry
     estimated scf accuracy    <       0.00000193 Ry

     iteration # 75     ecut=    10.00 Ry     beta= 0.70
     Davidson diagonalization with overlap

---- Real-time Memory Report at c_bands before calling an iterative solver
           134 MiB given to the printing process from OS
             0 MiB allocation reported by mallinfo(arena+hblkhd)
           111 MiB available memory on the node where the printing process lives
------------------
     ethr =  2.08E-09,  avg # of iterations =  4.0

     negative rho (up, down):  2.999E-01 0.000E+00

     total cpu time spent up to now is       21.3 secs

     total energy              =      -2.25156068 Ry
     estimated scf accuracy    <       0.00000088 Ry

     iteration # 76     ecut=    10.00 Ry     beta= 0.70
     Davidson diagonalization with overlap

---- Real-time Memory Report at c_bands before calling an iterative solver
           134 MiB given to the printing process from OS
             0 MiB allocation reported by mallinfo(arena+hblkhd)
           111 MiB available memory on the node where the printing process lives
------------------
     ethr =  2.08E-09,  avg # of iterations =  4.0

     negative rho (up, down):  2.999E-01 0.000E+00

     total cpu time spent up to now is       21.5 secs

     total energy              =      -2.25155340 Ry
     estimated scf accuracy    <       0.00000112 Ry

     iteration # 77     ecut=    10.00 Ry     beta= 0.70
     Davidson diagonalization with overlap

---- Real-time Memory Report at c_bands before calling an iterative solver
           134 MiB given to the printing process from OS
             0 MiB allocation reported by mallinfo(arena+hblkhd)
           111 MiB available memory on the node where the printing process lives
------------------
     ethr =  2.08E-09,  avg # of iterations =  4.0

     negative rho (up, down):  2.998E-01 0.000E+00

     total cpu time spent up to now is       21.8 secs

     total energy              =      -2.25159518 Ry
     estimated scf accuracy    <       0.00000040 Ry

     iteration # 78     ecut=    10.00 Ry     beta= 0.70
     Davidson diagonalization with overlap

---- Real-time Memory Report at c_bands before calling an iterative solver
           134 MiB given to the printing process from OS
             0 MiB allocation reported by mallinfo(arena+hblkhd)
           111 MiB available memory on the node where the printing process lives
------------------
     ethr =  2.08E-09,  avg # of iterations =  3.0

     negative rho (up, down):  2.996E-01 0.000E+00

     total cpu time spent up to now is       22.0 secs

     total energy              =      -2.25169014 Ry
     estimated scf accuracy    <       0.00000024 Ry

     iteration # 79     ecut=    10.00 Ry     beta= 0.70
     Davidson diagonalization with overlap

---- Real-time Memory Report at c_bands before calling an iterative solver
           134 MiB given to the printing process from OS
             0 MiB allocation reported by mallinfo(arena+hblkhd)
           108 MiB available memory on the node where the printing process lives
------------------
     ethr =  2.08E-09,  avg # of iterations =  5.0

     negative rho (up, down):  2.997E-01 0.000E+00

     total cpu time spent up to now is       22.3 secs

     total energy              =      -2.25163271 Ry
     estimated scf accuracy    <       0.00000269 Ry

     iteration # 80     ecut=    10.00 Ry     beta= 0.70
     Davidson diagonalization with overlap

---- Real-time Memory Report at c_bands before calling an iterative solver
           134 MiB given to the printing process from OS
             0 MiB allocation reported by mallinfo(arena+hblkhd)
           108 MiB available memory on the node where the printing process lives
------------------
     ethr =  2.08E-09,  avg # of iterations =  4.0

     negative rho (up, down):  2.998E-01 0.000E+00

     total cpu time spent up to now is       22.5 secs

     total energy              =      -2.25158790 Ry
     estimated scf accuracy    <       0.00000170 Ry

     iteration # 81     ecut=    10.00 Ry     beta= 0.70
     Davidson diagonalization with overlap

---- Real-time Memory Report at c_bands before calling an iterative solver
           134 MiB given to the printing process from OS
             0 MiB allocation reported by mallinfo(arena+hblkhd)
           108 MiB available memory on the node where the printing process lives
------------------
     ethr =  2.08E-09,  avg # of iterations =  4.0

     negative rho (up, down):  2.999E-01 0.000E+00

     total cpu time spent up to now is       22.7 secs

     total energy              =      -2.25157518 Ry
     estimated scf accuracy    <       0.00000053 Ry

     iteration # 82     ecut=    10.00 Ry     beta= 0.70
     Davidson diagonalization with overlap

---- Real-time Memory Report at c_bands before calling an iterative solver
           134 MiB given to the printing process from OS
             0 MiB allocation reported by mallinfo(arena+hblkhd)
           108 MiB available memory on the node where the printing process lives
------------------
     ethr =  2.08E-09,  avg # of iterations =  4.0

     negative rho (up, down):  2.998E-01 0.000E+00

     total cpu time spent up to now is       23.0 secs

     total energy              =      -2.25161340 Ry
     estimated scf accuracy    <       0.00000066 Ry

     iteration # 83     ecut=    10.00 Ry     beta= 0.70
     Davidson diagonalization with overlap

---- Real-time Memory Report at c_bands before calling an iterative solver
           134 MiB given to the printing process from OS
             0 MiB allocation reported by mallinfo(arena+hblkhd)
           108 MiB available memory on the node where the printing process lives
------------------
     ethr =  2.08E-09,  avg # of iterations =  3.0

     negative rho (up, down):  2.998E-01 0.000E+00

     total cpu time spent up to now is       23.2 secs

     total energy              =      -2.25160171 Ry
     estimated scf accuracy    <       0.00000049 Ry

     iteration # 84     ecut=    10.00 Ry     beta= 0.70
     Davidson diagonalization with overlap

---- Real-time Memory Report at c_bands before calling an iterative solver
           134 MiB given to the printing process from OS
             0 MiB allocation reported by mallinfo(arena+hblkhd)
           108 MiB available memory on the node where the printing process lives
------------------
     ethr =  2.08E-09,  avg # of iterations =  3.0

     negative rho (up, down):  2.999E-01 0.000E+00

     total cpu time spent up to now is       23.4 secs

     total energy              =      -2.25154510 Ry
     estimated scf accuracy    <       0.00000049 Ry

     iteration # 85     ecut=    10.00 Ry     beta= 0.70
     Davidson diagonalization with overlap

---- Real-time Memory Report at c_bands before calling an iterative solver
           134 MiB given to the printing process from OS
             0 MiB allocation reported by mallinfo(arena+hblkhd)
           108 MiB available memory on the node where the printing process lives
------------------
     ethr =  2.08E-09,  avg # of iterations =  3.0

     negative rho (up, down):  3.000E-01 0.000E+00

     total cpu time spent up to now is       23.6 secs

     total energy              =      -2.25153906 Ry
     estimated scf accuracy    <       0.00000116 Ry

     iteration # 86     ecut=    10.00 Ry     beta= 0.70
     Davidson diagonalization with overlap

---- Real-time Memory Report at c_bands before calling an iterative solver
           134 MiB given to the printing process from OS
             0 MiB allocation reported by mallinfo(arena+hblkhd)
           108 MiB available memory on the node where the printing process lives
------------------
     ethr =  2.08E-09,  avg # of iterations =  3.0

     negative rho (up, down):  3.000E-01 0.000E+00

     total cpu time spent up to now is       23.9 secs

     total energy              =      -2.25154915 Ry
     estimated scf accuracy    <       0.00000131 Ry

     iteration # 87     ecut=    10.00 Ry     beta= 0.70
     Davidson diagonalization with overlap

---- Real-time Memory Report at c_bands before calling an iterative solver
           134 MiB given to the printing process from OS
             0 MiB allocation reported by mallinfo(arena+hblkhd)
           108 MiB available memory on the node where the printing process lives
------------------
     ethr =  2.08E-09,  avg # of iterations =  2.0

     negative rho (up, down):  2.999E-01 0.000E+00

     total cpu time spent up to now is       24.1 secs

     total energy              =      -2.25156063 Ry
     estimated scf accuracy    <       0.00000099 Ry

     iteration # 88     ecut=    10.00 Ry     beta= 0.70
     Davidson diagonalization with overlap

---- Real-time Memory Report at c_bands before calling an iterative solver
           134 MiB given to the printing process from OS
             0 MiB allocation reported by mallinfo(arena+hblkhd)
           108 MiB available memory on the node where the printing process lives
------------------
     ethr =  2.08E-09,  avg # of iterations =  2.0

     negative rho (up, down):  2.999E-01 0.000E+00

     total cpu time spent up to now is       24.3 secs

     total energy              =      -2.25156975 Ry
     estimated scf accuracy    <       0.00000074 Ry

     iteration # 89     ecut=    10.00 Ry     beta= 0.70
     Davidson diagonalization with overlap

---- Real-time Memory Report at c_bands before calling an iterative solver
           134 MiB given to the printing process from OS
             0 MiB allocation reported by mallinfo(arena+hblkhd)
           108 MiB available memory on the node where the printing process lives
------------------
     ethr =  2.08E-09,  avg # of iterations =  2.0

     negative rho (up, down):  2.998E-01 0.000E+00

     total cpu time spent up to now is       24.5 secs

     total energy              =      -2.25162006 Ry
     estimated scf accuracy    <       0.00000057 Ry

     iteration # 90     ecut=    10.00 Ry     beta= 0.70
     Davidson diagonalization with overlap

---- Real-time Memory Report at c_bands before calling an iterative solver
           134 MiB given to the printing process from OS
             0 MiB allocation reported by mallinfo(arena+hblkhd)
           108 MiB available memory on the node where the printing process lives
------------------
     ethr =  2.08E-09,  avg # of iterations =  4.0

     negative rho (up, down):  3.004E-01 0.000E+00

     total cpu time spent up to now is       24.8 secs

     total energy              =      -2.25140695 Ry
     estimated scf accuracy    <       0.00000080 Ry

     iteration # 91     ecut=    10.00 Ry     beta= 0.70
     Davidson diagonalization with overlap

---- Real-time Memory Report at c_bands before calling an iterative solver
           134 MiB given to the printing process from OS
             0 MiB allocation reported by mallinfo(arena+hblkhd)
           108 MiB available memory on the node where the printing process lives
------------------
     ethr =  2.08E-09,  avg # of iterations =  4.0

     negative rho (up, down):  3.005E-01 0.000E+00

     total cpu time spent up to now is       25.0 secs

     total energy              =      -2.25135130 Ry
     estimated scf accuracy    <       0.00001489 Ry

     iteration # 92     ecut=    10.00 Ry     beta= 0.70
     Davidson diagonalization with overlap

---- Real-time Memory Report at c_bands before calling an iterative solver
           134 MiB given to the printing process from OS
             0 MiB allocation reported by mallinfo(arena+hblkhd)
           108 MiB available memory on the node where the printing process lives
------------------
     ethr =  2.08E-09,  avg # of iterations =  4.0

     negative rho (up, down):  3.004E-01 0.000E+00

     total cpu time spent up to now is       25.2 secs

     total energy              =      -2.25137183 Ry
     estimated scf accuracy    <       0.00001432 Ry

     iteration # 93     ecut=    10.00 Ry     beta= 0.70
     Davidson diagonalization with overlap

---- Real-time Memory Report at c_bands before calling an iterative solver
           134 MiB given to the printing process from OS
             0 MiB allocation reported by mallinfo(arena+hblkhd)
           108 MiB available memory on the node where the printing process lives
------------------
     ethr =  2.08E-09,  avg # of iterations =  4.0

     negative rho (up, down):  3.005E-01 0.000E+00

     total cpu time spent up to now is       25.5 secs

     total energy              =      -2.25135189 Ry
     estimated scf accuracy    <       0.00000821 Ry

     iteration # 94     ecut=    10.00 Ry     beta= 0.70
     Davidson diagonalization with overlap

---- Real-time Memory Report at c_bands before calling an iterative solver
           134 MiB given to the printing process from OS
             0 MiB allocation reported by mallinfo(arena+hblkhd)
           108 MiB available memory on the node where the printing process lives
------------------
     ethr =  2.08E-09,  avg # of iterations =  3.0

     negative rho (up, down):  3.005E-01 0.000E+00

     total cpu time spent up to now is       25.7 secs

     total energy              =      -2.25133836 Ry
     estimated scf accuracy    <       0.00001032 Ry

     iteration # 95     ecut=    10.00 Ry     beta= 0.70
     Davidson diagonalization with overlap

---- Real-time Memory Report at c_bands before calling an iterative solver
           134 MiB given to the printing process from OS
             0 MiB allocation reported by mallinfo(arena+hblkhd)
           108 MiB available memory on the node where the printing process lives
------------------
     ethr =  2.08E-09,  avg # of iterations =  4.0

     negative rho (up, down):  3.004E-01 0.000E+00

     total cpu time spent up to now is       25.9 secs

     total energy              =      -2.25135433 Ry
     estimated scf accuracy    <       0.00001420 Ry

     iteration # 96     ecut=    10.00 Ry     beta= 0.70
     Davidson diagonalization with overlap

---- Real-time Memory Report at c_bands before calling an iterative solver
           134 MiB given to the printing process from OS
             0 MiB allocation reported by mallinfo(arena+hblkhd)
           108 MiB available memory on the node where the printing process lives
------------------
     ethr =  2.08E-09,  avg # of iterations =  4.0

     negative rho (up, down):  3.004E-01 0.000E+00

     total cpu time spent up to now is       26.2 secs

     total energy              =      -2.25135293 Ry
     estimated scf accuracy    <       0.00000784 Ry

     iteration # 97     ecut=    10.00 Ry     beta= 0.70
     Davidson diagonalization with overlap

---- Real-time Memory Report at c_bands before calling an iterative solver
           134 MiB given to the printing process from OS
             0 MiB allocation reported by mallinfo(arena+hblkhd)
           108 MiB available memory on the node where the printing process lives
------------------
     ethr =  2.08E-09,  avg # of iterations =  2.0

     negative rho (up, down):  3.003E-01 0.000E+00

     total cpu time spent up to now is       26.4 secs

     total energy              =      -2.25143433 Ry
     estimated scf accuracy    <       0.00000817 Ry

     iteration # 98     ecut=    10.00 Ry     beta= 0.70
     Davidson diagonalization with overlap

---- Real-time Memory Report at c_bands before calling an iterative solver
           134 MiB given to the printing process from OS
             0 MiB allocation reported by mallinfo(arena+hblkhd)
           108 MiB available memory on the node where the printing process lives
------------------
     ethr =  2.08E-09,  avg # of iterations =  4.0

     negative rho (up, down):  2.994E-01 0.000E+00

     total cpu time spent up to now is       26.6 secs

     total energy              =      -2.25180892 Ry
     estimated scf accuracy    <       0.00000829 Ry

     iteration # 99     ecut=    10.00 Ry     beta= 0.70
     Davidson diagonalization with overlap

---- Real-time Memory Report at c_bands before calling an iterative solver
           134 MiB given to the printing process from OS
             0 MiB allocation reported by mallinfo(arena+hblkhd)
           108 MiB available memory on the node where the printing process lives
------------------
     ethr =  2.08E-09,  avg # of iterations =  4.0

     negative rho (up, down):  2.997E-01 0.000E+00

     total cpu time spent up to now is       26.9 secs

     total energy              =      -2.25167224 Ry
     estimated scf accuracy    <       0.00000074 Ry

     iteration #100     ecut=    10.00 Ry     beta= 0.70
     Davidson diagonalization with overlap

---- Real-time Memory Report at c_bands before calling an iterative solver
           134 MiB given to the printing process from OS
             0 MiB allocation reported by mallinfo(arena+hblkhd)
           108 MiB available memory on the node where the printing process lives
------------------
     ethr =  2.08E-09,  avg # of iterations =  4.0

     negative rho (up, down):  2.994E-01 0.000E+00

     total cpu time spent up to now is       27.1 secs

     total energy              =      -2.25179905 Ry
     estimated scf accuracy    <       0.00000239 Ry

     End of self-consistent calculation

     convergence NOT achieved after 100 iterations: stopping

     Writing config to output data dir ./.save/
     Message from routine punch:
     wavefunctions written to file

     init_run     :      0.22s CPU      0.24s WALL (       1 calls)
     electrons    :     26.46s CPU     26.64s WALL (       2 calls)
     update_pot   :      0.14s CPU      0.15s WALL (       1 calls)
     forces       :      0.05s CPU      0.05s WALL (       1 calls)

     Called by init_run:
     wfcinit      :      0.01s CPU      0.02s WALL (       1 calls)
     wfcinit:atom :      0.00s CPU      0.00s WALL (       1 calls)
     wfcinit:wfcr :      0.01s CPU      0.01s WALL (       1 calls)
     potinit      :      0.14s CPU      0.15s WALL (       1 calls)
     hinit0       :      0.02s CPU      0.02s WALL (       1 calls)

     Called by electrons:
     c_bands      :      5.61s CPU      5.65s WALL (     113 calls)
     sum_band     :      2.87s CPU      2.89s WALL (     113 calls)
     v_of_rho     :     14.01s CPU     14.10s WALL (     115 calls)
     v_h          :      0.77s CPU      0.77s WALL (     115 calls)
     v_xc         :     13.24s CPU     13.33s WALL (     115 calls)
     newd         :      0.96s CPU      0.97s WALL (     115 calls)
     mix_rho      :      2.97s CPU      2.99s WALL (     113 calls)

     Called by c_bands:
     init_us_2    :      0.08s CPU      0.09s WALL (     227 calls)
     init_us_2:cp :      0.08s CPU      0.09s WALL (     227 calls)
     cegterg      :      5.55s CPU      5.58s WALL (     113 calls)

     Called by sum_band:
     sum_band:wei :      0.00s CPU      0.00s WALL (     113 calls)
     sum_band:loo :      0.79s CPU      0.80s WALL (     113 calls)
     sum_band:buf :      0.00s CPU      0.00s WALL (     113 calls)
     sum_band:ini :      0.04s CPU      0.04s WALL (     113 calls)
     sum_band:cal :      0.01s CPU      0.01s WALL (     113 calls)
     sum_band:bec :      0.00s CPU      0.00s WALL (     113 calls)
     addusdens    :      0.26s CPU      0.26s WALL (     113 calls)
     addusd:skk   :      0.08s CPU      0.08s WALL (     113 calls)
     addusd:dgemm :      0.06s CPU      0.06s WALL (     113 calls)
     addusd:qvan2 :      0.06s CPU      0.06s WALL (     113 calls)

     Called by *egterg:
     cdiaghg      :      0.01s CPU      0.01s WALL (     514 calls)
     cegterg:over :      0.08s CPU      0.08s WALL (     402 calls)
     cegterg:upda :      0.06s CPU      0.06s WALL (     402 calls)
     cegterg:last :      0.12s CPU      0.12s WALL (     310 calls)
     h_psi        :      5.17s CPU      5.20s WALL (     516 calls)
     s_psi        :      0.03s CPU      0.03s WALL (     516 calls)
     g_psi        :      0.03s CPU      0.03s WALL (     402 calls)

     Called by h_psi:
     h_psi:calbec :      0.04s CPU      0.04s WALL (     516 calls)
     vloc_psi     :      5.07s CPU      5.10s WALL (     516 calls)
     add_vuspsi   :      0.03s CPU      0.03s WALL (     516 calls)

     General routines
     calbec       :      0.05s CPU      0.05s WALL (     633 calls)
     fft          :      6.58s CPU      6.62s WALL (    1268 calls)
     ffts         :      0.60s CPU      0.61s WALL (     113 calls)
     fftw         :      5.22s CPU      5.26s WALL (    1822 calls)
     davcio       :      0.00s CPU      0.01s WALL (      19 calls)


     PWSCF        :     26.92s CPU     27.13s WALL


   This run was terminated on:   0:59:30  28Feb2022            

=------------------------------------------------------------------------------=
   JOB DONE.
=------------------------------------------------------------------------------=
