
     Program PWSCF v.7.0 starts on 28Feb2022 at  2:58:29 

     This program is part of the open-source Quantum ESPRESSO suite
     for quantum simulation of materials; please cite
         "P. Giannozzi et al., J. Phys.:Condens. Matter 21 395502 (2009);
         "P. Giannozzi et al., J. Phys.:Condens. Matter 29 465901 (2017);
         "P. Giannozzi et al., J. Chem. Phys. 152 154105 (2020);
          URL http://www.quantum-espresso.org", 
     in publications or presentations arising from this work. More details at
     http://www.quantum-espresso.org/quote

     Serial version
     560 MiB available memory on the printing compute node when the environment starts

     Waiting for input...
     Reading input from standard input

     Current dimensions of program PWSCF are:
     Max number of different atomic species (ntypx) = 10
     Max number of k-points (npk) =  40000
     Max angular momentum in pseudopotentials (lmaxx) =  4

     File ./.update deleted, as requested

     File ./.bfgs deleted, as requested

    ============================================================
    |  pseudopotential report for atomic species:  1           |
    |        pseudo potential version   7   3   2              |
    ------------------------------------------------------------
    |  hydrogen            PBE                  exchange-corr  |
    |  z =   1.    zv( 1) =   1.    exfact =   5.00000         |
    |  ifpcor =  0           atomic energy =  -0.91772 Ry      |
    |  index    orbital      occupation    energy              |
    |    1        100           1.00       -0.48               |
    |  rinner =  0.5000                                        |
    |    new generation scheme:                                |
    |    nbeta =  1     kkbeta =  271     rcloc =    0.6000    |
    |    ibeta    l     epsilon   rcut                         |
    |      1       0      -0.48   0.80                         |
    ============================================================

     IMPORTANT: XC functional enforced from input :
     Exchange-correlation= BLYP
                           (   1   3   1   3   0   0   0)
     Any further DFT definition will be discarded
     Please, verify this is what you really want


     G-vector sticks info
     --------------------
     sticks:   dense  smooth     PW     G-vecs:    dense   smooth      PW
     Sum        2869    2869    793               115313   115313   17071

     Using Slab Decomposition



     bravais-lattice index     =            1
     lattice parameter (alat)  =      30.0000  a.u.
     unit-cell volume          =   27000.0000 (a.u.)^3
     number of atoms/cell      =            2
     number of atomic types    =            1
     number of electrons       =         2.00
     number of Kohn-Sham states=            2
     kinetic-energy cutoff     =      10.0000  Ry
     charge density cutoff     =      40.0000  Ry
     scf convergence threshold =      1.0E-08
     mixing beta               =       0.7000
     number of iterations used =            8  plain     mixing
     energy convergence thresh.=      1.0E-04
     force convergence thresh. =      1.0E-03
     Exchange-correlation= BLYP
                           (   1   3   1   3   0   0   0)
     nstep                     =           50


     celldm(1)=  30.000000  celldm(2)=   0.000000  celldm(3)=   0.000000
     celldm(4)=   0.000000  celldm(5)=   0.000000  celldm(6)=   0.000000

     crystal axes: (cart. coord. in units of alat)
               a(1) = (   1.000000   0.000000   0.000000 )  
               a(2) = (   0.000000   1.000000   0.000000 )  
               a(3) = (   0.000000   0.000000   1.000000 )  

     reciprocal axes: (cart. coord. in units 2 pi/alat)
               b(1) = (  1.000000  0.000000  0.000000 )  
               b(2) = (  0.000000  1.000000  0.000000 )  
               b(3) = (  0.000000  0.000000  1.000000 )  


     PseudoPot. # 1 for hy read from file:
     /root/q-e/pseudo/H_US.van
     MD5 check sum: a9a9bfe98ff56cf4de197d71fc46bb44
     Pseudo is Ultrasoft, Zval =  1.0
     Generated by Vanderbilt code, v. 7.3.2
     Using radial grid of  399 points,  1 beta functions with: 
                l(1) =   0
     Q(r) pseudized with  8 coefficients,  rinner =    0.500

     atomic species   valence    mass     pseudopotential
        H              1.00     1.00784     hy( 1.00)

      8 Sym. Ops. (no inversion) found


                                    s                        frac. trans.

      isym =  1     identity                                     

 cryst.   s( 1) = (     1          0          0      )
                  (     0          1          0      )
                  (     0          0          1      )

 cart.    s( 1) = (  1.0000000  0.0000000  0.0000000 )
                  (  0.0000000  1.0000000  0.0000000 )
                  (  0.0000000  0.0000000  1.0000000 )


      isym =  2     180 deg rotation - cart. axis [1,0,0]        

 cryst.   s( 2) = (     1          0          0      )
                  (     0         -1          0      )
                  (     0          0         -1      )

 cart.    s( 2) = (  1.0000000  0.0000000  0.0000000 )
                  (  0.0000000 -1.0000000  0.0000000 )
                  (  0.0000000  0.0000000 -1.0000000 )


      isym =  3      90 deg rotation - cart. axis [-1,0,0]       

 cryst.   s( 3) = (     1          0          0      )
                  (     0          0         -1      )
                  (     0          1          0      )

 cart.    s( 3) = (  1.0000000  0.0000000  0.0000000 )
                  (  0.0000000  0.0000000  1.0000000 )
                  (  0.0000000 -1.0000000  0.0000000 )


      isym =  4      90 deg rotation - cart. axis [1,0,0]        

 cryst.   s( 4) = (     1          0          0      )
                  (     0          0          1      )
                  (     0         -1          0      )

 cart.    s( 4) = (  1.0000000  0.0000000  0.0000000 )
                  (  0.0000000  0.0000000 -1.0000000 )
                  (  0.0000000  1.0000000  0.0000000 )


      isym =  5     inv. 180 deg rotation - cart. axis [0,0,1]   

 cryst.   s( 5) = (     1          0          0      )
                  (     0          1          0      )
                  (     0          0         -1      )

 cart.    s( 5) = (  1.0000000  0.0000000  0.0000000 )
                  (  0.0000000  1.0000000  0.0000000 )
                  (  0.0000000  0.0000000 -1.0000000 )


      isym =  6     inv. 180 deg rotation - cart. axis [0,1,0]   

 cryst.   s( 6) = (     1          0          0      )
                  (     0         -1          0      )
                  (     0          0          1      )

 cart.    s( 6) = (  1.0000000  0.0000000  0.0000000 )
                  (  0.0000000 -1.0000000  0.0000000 )
                  (  0.0000000  0.0000000  1.0000000 )


      isym =  7     inv. 180 deg rotation - cart. axis [0,1,1]   

 cryst.   s( 7) = (     1          0          0      )
                  (     0          0         -1      )
                  (     0         -1          0      )

 cart.    s( 7) = (  1.0000000  0.0000000  0.0000000 )
                  (  0.0000000  0.0000000 -1.0000000 )
                  (  0.0000000 -1.0000000  0.0000000 )


      isym =  8     inv. 180 deg rotation - cart. axis [0,1,-1]  

 cryst.   s( 8) = (     1          0          0      )
                  (     0          0          1      )
                  (     0          1          0      )

 cart.    s( 8) = (  1.0000000  0.0000000  0.0000000 )
                  (  0.0000000  0.0000000  1.0000000 )
                  (  0.0000000  1.0000000  0.0000000 )


     point group C_4v (4mm) 
     there are  5 classes
     the character table:

       E     2C4   C2    2s_v  2s_d 
A_1    1.00  1.00  1.00  1.00  1.00
A_2    1.00  1.00  1.00 -1.00 -1.00
B_1    1.00 -1.00  1.00  1.00 -1.00
B_2    1.00 -1.00  1.00 -1.00  1.00
E      2.00  0.00 -2.00  0.00  0.00

     the symmetry operations in each class and the name of the first element:

     E        1
          identity                                               
     2C4      3    4
           90 deg rotation - cart. axis [-1,0,0]                 
     C2       2
          180 deg rotation - cart. axis [1,0,0]                  
     2s_v     5    6
          inv. 180 deg rotation - cart. axis [0,0,1]             
     2s_d     7    8
          inv. 180 deg rotation - cart. axis [0,1,1]             

   Cartesian axes

     site n.     atom                  positions (alat units)
         1           H   tau(   1) = (   0.0000000   0.0000000   0.0000000  )
         2           H   tau(   2) = (   0.0529123   0.0000000   0.0000000  )

   Crystallographic axes

     site n.     atom                  positions (cryst. coord.)
         1           H   tau(   1) = (  0.0000000  0.0000000  0.0000000  )
         2           H   tau(   2) = (  0.0529123  0.0000000  0.0000000  )

     number of k points=     1
                       cart. coord. in units 2pi/alat
        k(    1) = (  -0.5000000  -0.5000000  -0.5000000), wk =   2.0000000

                       cryst. coord.
        k(    1) = (  -0.5000000  -0.5000000  -0.5000000), wk =   2.0000000

     Dense  grid:   115313 G-vectors     FFT dimensions: (  64,  64,  64)

     Dynamical RAM for                 wfc:       0.44 MB

     Dynamical RAM for     wfc (w. buffer):       0.44 MB

     Dynamical RAM for           str. fact:       1.76 MB

     Dynamical RAM for           local pot:       0.00 MB

     Dynamical RAM for          nlocal pot:       0.44 MB

     Dynamical RAM for                qrad:       0.00 MB

     Dynamical RAM for          rho,v,vnew:      11.28 MB

     Dynamical RAM for               rhoin:       3.76 MB

     Dynamical RAM for            rho*nmix:      28.15 MB

     Dynamical RAM for           G-vectors:       7.48 MB

     Dynamical RAM for          h,s,v(r/c):       0.00 MB

     Dynamical RAM for          <psi|beta>:       0.00 MB

     Dynamical RAM for                 psi:       0.88 MB

     Dynamical RAM for                hpsi:       0.88 MB

     Dynamical RAM for                spsi:       0.88 MB

     Dynamical RAM for      wfcinit/wfcrot:       0.88 MB

     Dynamical RAM for           addusdens:      10.56 MB

     Dynamical RAM for          addusforce:      14.96 MB

     Estimated static dynamical RAM per process >      38.68 MB

     Estimated max dynamical RAM per process >      81.79 MB

     Initial potential from superposition of free atoms

     starting charge       2.0000, renormalised to       2.0000

     negative rho (up, down):  1.972E-01 0.000E+00
     Starting wfcs are    2 randomized atomic wfcs

     total cpu time spent up to now is        0.2 secs

     Self-consistent Calculation

     iteration #  1     ecut=    10.00 Ry     beta= 0.70
     Davidson diagonalization with overlap

---- Real-time Memory Report at c_bands before calling an iterative solver
            81 MiB given to the printing process from OS
             0 MiB allocation reported by mallinfo(arena+hblkhd)
           511 MiB available memory on the node where the printing process lives
------------------
     ethr =  1.00E-02,  avg # of iterations =  3.0

     negative rho (up, down):  2.701E-01 0.000E+00

     total cpu time spent up to now is        0.5 secs

     total energy              =      -2.24581414 Ry
     estimated scf accuracy    <       0.08706402 Ry

     iteration #  2     ecut=    10.00 Ry     beta= 0.70
     Davidson diagonalization with overlap

---- Real-time Memory Report at c_bands before calling an iterative solver
           102 MiB given to the printing process from OS
             0 MiB allocation reported by mallinfo(arena+hblkhd)
           471 MiB available memory on the node where the printing process lives
------------------
     ethr =  4.35E-03,  avg # of iterations =  2.0

     negative rho (up, down):  2.840E-01 0.000E+00

     total cpu time spent up to now is        0.7 secs

     total energy              =      -2.24518589 Ry
     estimated scf accuracy    <       0.00138187 Ry

     iteration #  3     ecut=    10.00 Ry     beta= 0.70
     Davidson diagonalization with overlap

---- Real-time Memory Report at c_bands before calling an iterative solver
           105 MiB given to the printing process from OS
             0 MiB allocation reported by mallinfo(arena+hblkhd)
           468 MiB available memory on the node where the printing process lives
------------------
     ethr =  6.91E-05,  avg # of iterations = 11.0

     negative rho (up, down):  2.819E-01 0.000E+00

     total cpu time spent up to now is        0.9 secs

     total energy              =      -2.24647784 Ry
     estimated scf accuracy    <       0.00003876 Ry

     iteration #  4     ecut=    10.00 Ry     beta= 0.70
     Davidson diagonalization with overlap

---- Real-time Memory Report at c_bands before calling an iterative solver
           109 MiB given to the printing process from OS
             0 MiB allocation reported by mallinfo(arena+hblkhd)
           464 MiB available memory on the node where the printing process lives
------------------
     ethr =  1.94E-06,  avg # of iterations =  6.0

     negative rho (up, down):  2.827E-01 0.000E+00

     total cpu time spent up to now is        1.2 secs

     total energy              =      -2.24624801 Ry
     estimated scf accuracy    <       0.00000682 Ry

     iteration #  5     ecut=    10.00 Ry     beta= 0.70
     Davidson diagonalization with overlap

---- Real-time Memory Report at c_bands before calling an iterative solver
           112 MiB given to the printing process from OS
             0 MiB allocation reported by mallinfo(arena+hblkhd)
           461 MiB available memory on the node where the printing process lives
------------------
     ethr =  3.41E-07,  avg # of iterations =  2.0

     negative rho (up, down):  2.828E-01 0.000E+00

     total cpu time spent up to now is        1.4 secs

     total energy              =      -2.24618140 Ry
     estimated scf accuracy    <       0.00000024 Ry

     iteration #  6     ecut=    10.00 Ry     beta= 0.70
     Davidson diagonalization with overlap

---- Real-time Memory Report at c_bands before calling an iterative solver
           116 MiB given to the printing process from OS
             0 MiB allocation reported by mallinfo(arena+hblkhd)
           457 MiB available memory on the node where the printing process lives
------------------
     ethr =  1.19E-08,  avg # of iterations =  4.0

     negative rho (up, down):  2.828E-01 0.000E+00

     total cpu time spent up to now is        1.6 secs

     total energy              =      -2.24618442 Ry
     estimated scf accuracy    <       0.00000035 Ry

     iteration #  7     ecut=    10.00 Ry     beta= 0.70
     Davidson diagonalization with overlap

---- Real-time Memory Report at c_bands before calling an iterative solver
           119 MiB given to the printing process from OS
             0 MiB allocation reported by mallinfo(arena+hblkhd)
           454 MiB available memory on the node where the printing process lives
------------------
     ethr =  1.19E-08,  avg # of iterations =  1.0

     negative rho (up, down):  2.827E-01 0.000E+00

     total cpu time spent up to now is        1.8 secs

     total energy              =      -2.24624177 Ry
     estimated scf accuracy    <       0.00000038 Ry

     iteration #  8     ecut=    10.00 Ry     beta= 0.70
     Davidson diagonalization with overlap

---- Real-time Memory Report at c_bands before calling an iterative solver
           123 MiB given to the printing process from OS
             0 MiB allocation reported by mallinfo(arena+hblkhd)
           450 MiB available memory on the node where the printing process lives
------------------
     ethr =  1.19E-08,  avg # of iterations =  3.0

     negative rho (up, down):  2.827E-01 0.000E+00

     total cpu time spent up to now is        2.1 secs

     total energy              =      -2.24623417 Ry
     estimated scf accuracy    <       0.00000023 Ry

     iteration #  9     ecut=    10.00 Ry     beta= 0.70
     Davidson diagonalization with overlap

---- Real-time Memory Report at c_bands before calling an iterative solver
           127 MiB given to the printing process from OS
             0 MiB allocation reported by mallinfo(arena+hblkhd)
           447 MiB available memory on the node where the printing process lives
------------------
     ethr =  1.14E-08,  avg # of iterations =  2.0

     negative rho (up, down):  2.827E-01 0.000E+00

     total cpu time spent up to now is        2.3 secs

     total energy              =      -2.24623616 Ry
     estimated scf accuracy    <       0.00000024 Ry

     iteration # 10     ecut=    10.00 Ry     beta= 0.70
     Davidson diagonalization with overlap

---- Real-time Memory Report at c_bands before calling an iterative solver
           130 MiB given to the printing process from OS
             0 MiB allocation reported by mallinfo(arena+hblkhd)
           443 MiB available memory on the node where the printing process lives
------------------
     ethr =  1.14E-08,  avg # of iterations =  2.0

     negative rho (up, down):  2.827E-01 0.000E+00

     total cpu time spent up to now is        2.5 secs

     total energy              =      -2.24621598 Ry
     estimated scf accuracy    <       0.00000014 Ry

     iteration # 11     ecut=    10.00 Ry     beta= 0.70
     Davidson diagonalization with overlap

---- Real-time Memory Report at c_bands before calling an iterative solver
           130 MiB given to the printing process from OS
             0 MiB allocation reported by mallinfo(arena+hblkhd)
           443 MiB available memory on the node where the printing process lives
------------------
     ethr =  6.76E-09,  avg # of iterations =  3.0

     negative rho (up, down):  2.827E-01 0.000E+00

     total cpu time spent up to now is        2.7 secs

     End of self-consistent calculation

          k =-0.5000-0.5000-0.5000 ( 14400 PWs)   bands (ev):

   -10.2848  -1.4393

     occupation numbers 
     1.0000   0.0000

     highest occupied, lowest unoccupied level (ev):   -10.2848   -1.4393

!    total energy              =      -2.24622098 Ry
     estimated scf accuracy    <          7.7E-09 Ry

     The total energy is the sum of the following terms:
     one-electron contribution =      -3.93823384 Ry
     hartree contribution      =       2.12685981 Ry
     xc contribution           =      -1.31687889 Ry
     ewald contribution        =       0.88203194 Ry

     convergence has been achieved in  11 iterations

     Forces acting on atoms (cartesian axes, Ry/au):

     atom    1 type  1   force =     0.17994948    0.00000000    0.00000000
     atom    2 type  1   force =    -0.17994948    0.00000000    0.00000000
     The non-local contrib.  to forces
     atom    1 type  1   force =     0.16214619    0.00000000    0.00000000
     atom    2 type  1   force =    -0.15621671    0.00000000    0.00000000
     The ionic contribution  to forces
     atom    1 type  1   force =    -0.79323495    0.00000000   -0.00000000
     atom    2 type  1   force =     0.79323495    0.00000000   -0.00000000
     The local contribution  to forces
     atom    1 type  1   force =     0.81507115    0.00000000    0.00000000
     atom    2 type  1   force =    -0.81438016    0.00000000    0.00000000
     The core correction contribution to forces
     atom    1 type  1   force =     0.00000000    0.00000000    0.00000000
     atom    2 type  1   force =     0.00000000    0.00000000    0.00000000
     The Hubbard contrib.    to forces
     atom    1 type  1   force =     0.00000000    0.00000000    0.00000000
     atom    2 type  1   force =     0.00000000    0.00000000    0.00000000
     The SCF correction term to forces
     atom    1 type  1   force =    -0.00008072    0.00000000   -0.00000000
     atom    2 type  1   force =     0.00136464    0.00000000   -0.00000000

     Total force =     0.254487     Total SCF correction =     0.001367

     BFGS Geometry Optimization
     Energy error            =      0.0E+00 Ry
     Gradient error          =      1.8E-01 Ry/Bohr

     number of scf cycles    =   1
     number of bfgs steps    =   0

     energy             new  =      -2.2462209804 Ry

     new trust radius        =       0.1799494755 bohr
     new conv_thr            =       0.0000000100 Ry


ATOMIC_POSITIONS (angstrom)
H             0.0952251616        0.0000000000        0.0000000000
H             0.7447748384        0.0000000000        0.0000000000



     Writing config-only to output data dir ./.save/
     NEW-OLD atomic charge density approx. for the potential

     negative rho (up, down):  2.974E-01 0.000E+00

     total cpu time spent up to now is        2.9 secs

     Self-consistent Calculation

     iteration #  1     ecut=    10.00 Ry     beta= 0.70
     Davidson diagonalization with overlap

---- Real-time Memory Report at c_bands before calling an iterative solver
           132 MiB given to the printing process from OS
             0 MiB allocation reported by mallinfo(arena+hblkhd)
           508 MiB available memory on the node where the printing process lives
------------------
     ethr =  1.00E-06,  avg # of iterations =  8.0

     negative rho (up, down):  3.696E-01 0.000E+00

     total cpu time spent up to now is        3.2 secs

     total energy              =      -2.22098167 Ry
     estimated scf accuracy    <       0.00830874 Ry

     iteration #  2     ecut=    10.00 Ry     beta= 0.70
     Davidson diagonalization with overlap

---- Real-time Memory Report at c_bands before calling an iterative solver
           132 MiB given to the printing process from OS
             0 MiB allocation reported by mallinfo(arena+hblkhd)
           470 MiB available memory on the node where the printing process lives
------------------
     ethr =  4.15E-04,  avg # of iterations =  2.0

     negative rho (up, down):  3.844E-01 0.000E+00

     total cpu time spent up to now is        3.4 secs

     total energy              =      -2.21536433 Ry
     estimated scf accuracy    <       0.00004214 Ry

     iteration #  3     ecut=    10.00 Ry     beta= 0.70
     Davidson diagonalization with overlap

---- Real-time Memory Report at c_bands before calling an iterative solver
           132 MiB given to the printing process from OS
             0 MiB allocation reported by mallinfo(arena+hblkhd)
           467 MiB available memory on the node where the printing process lives
------------------
     ethr =  2.11E-06,  avg # of iterations =  5.0

     negative rho (up, down):  3.891E-01 0.000E+00

     total cpu time spent up to now is        3.7 secs

     total energy              =      -2.21320615 Ry
     estimated scf accuracy    <       0.00000662 Ry

     iteration #  4     ecut=    10.00 Ry     beta= 0.70
     Davidson diagonalization with overlap

---- Real-time Memory Report at c_bands before calling an iterative solver
           132 MiB given to the printing process from OS
             0 MiB allocation reported by mallinfo(arena+hblkhd)
           463 MiB available memory on the node where the printing process lives
------------------
     ethr =  3.31E-07,  avg # of iterations =  4.0

     negative rho (up, down):  3.891E-01 0.000E+00

     total cpu time spent up to now is        3.9 secs

     total energy              =      -2.21321406 Ry
     estimated scf accuracy    <       0.00003788 Ry

     iteration #  5     ecut=    10.00 Ry     beta= 0.70
     Davidson diagonalization with overlap

---- Real-time Memory Report at c_bands before calling an iterative solver
           132 MiB given to the printing process from OS
             0 MiB allocation reported by mallinfo(arena+hblkhd)
           460 MiB available memory on the node where the printing process lives
------------------
     ethr =  3.31E-07,  avg # of iterations =  3.0

     negative rho (up, down):  3.893E-01 0.000E+00

     total cpu time spent up to now is        4.1 secs

     total energy              =      -2.21313959 Ry
     estimated scf accuracy    <       0.00000096 Ry

     iteration #  6     ecut=    10.00 Ry     beta= 0.70
     Davidson diagonalization with overlap

---- Real-time Memory Report at c_bands before calling an iterative solver
           132 MiB given to the printing process from OS
             0 MiB allocation reported by mallinfo(arena+hblkhd)
           456 MiB available memory on the node where the printing process lives
------------------
     ethr =  4.79E-08,  avg # of iterations =  3.0

     negative rho (up, down):  3.899E-01 0.000E+00

     total cpu time spent up to now is        4.3 secs

     total energy              =      -2.21314581 Ry
     estimated scf accuracy    <       0.00000093 Ry

     iteration #  7     ecut=    10.00 Ry     beta= 0.70
     Davidson diagonalization with overlap

---- Real-time Memory Report at c_bands before calling an iterative solver
           132 MiB given to the printing process from OS
             0 MiB allocation reported by mallinfo(arena+hblkhd)
           453 MiB available memory on the node where the printing process lives
------------------
     ethr =  4.65E-08,  avg # of iterations =  4.0

     negative rho (up, down):  3.899E-01 0.000E+00

     total cpu time spent up to now is        4.6 secs

     total energy              =      -2.21292570 Ry
     estimated scf accuracy    <       0.00002500 Ry

     iteration #  8     ecut=    10.00 Ry     beta= 0.70
     Davidson diagonalization with overlap

---- Real-time Memory Report at c_bands before calling an iterative solver
           132 MiB given to the printing process from OS
             0 MiB allocation reported by mallinfo(arena+hblkhd)
           449 MiB available memory on the node where the printing process lives
------------------
     ethr =  4.65E-08,  avg # of iterations =  4.0

     negative rho (up, down):  3.898E-01 0.000E+00

     total cpu time spent up to now is        4.8 secs

     total energy              =      -2.21305784 Ry
     estimated scf accuracy    <       0.00000775 Ry

     iteration #  9     ecut=    10.00 Ry     beta= 0.70
     Davidson diagonalization with overlap

---- Real-time Memory Report at c_bands before calling an iterative solver
           132 MiB given to the printing process from OS
             0 MiB allocation reported by mallinfo(arena+hblkhd)
           446 MiB available memory on the node where the printing process lives
------------------
     ethr =  4.65E-08,  avg # of iterations =  4.0

     negative rho (up, down):  3.898E-01 0.000E+00

     total cpu time spent up to now is        5.0 secs

     total energy              =      -2.21308071 Ry
     estimated scf accuracy    <       0.00000009 Ry

     iteration # 10     ecut=    10.00 Ry     beta= 0.70
     Davidson diagonalization with overlap

---- Real-time Memory Report at c_bands before calling an iterative solver
           133 MiB given to the printing process from OS
             0 MiB allocation reported by mallinfo(arena+hblkhd)
           442 MiB available memory on the node where the printing process lives
------------------
     ethr =  4.45E-09,  avg # of iterations =  4.0

     negative rho (up, down):  3.898E-01 0.000E+00

     total cpu time spent up to now is        5.3 secs

     total energy              =      -2.21316102 Ry
     estimated scf accuracy    <       0.00000026 Ry

     iteration # 11     ecut=    10.00 Ry     beta= 0.70
     Davidson diagonalization with overlap

---- Real-time Memory Report at c_bands before calling an iterative solver
           133 MiB given to the printing process from OS
             0 MiB allocation reported by mallinfo(arena+hblkhd)
           442 MiB available memory on the node where the printing process lives
------------------
     ethr =  4.45E-09,  avg # of iterations =  4.0

     negative rho (up, down):  3.898E-01 0.000E+00

     total cpu time spent up to now is        5.5 secs

     total energy              =      -2.21317039 Ry
     estimated scf accuracy    <       0.00000094 Ry

     iteration # 12     ecut=    10.00 Ry     beta= 0.70
     Davidson diagonalization with overlap

---- Real-time Memory Report at c_bands before calling an iterative solver
           133 MiB given to the printing process from OS
             0 MiB allocation reported by mallinfo(arena+hblkhd)
           442 MiB available memory on the node where the printing process lives
------------------
     ethr =  4.45E-09,  avg # of iterations =  4.0

     negative rho (up, down):  3.897E-01 0.000E+00

     total cpu time spent up to now is        5.7 secs

     total energy              =      -2.21306209 Ry
     estimated scf accuracy    <       0.00000293 Ry

     iteration # 13     ecut=    10.00 Ry     beta= 0.70
     Davidson diagonalization with overlap

---- Real-time Memory Report at c_bands before calling an iterative solver
           133 MiB given to the printing process from OS
             0 MiB allocation reported by mallinfo(arena+hblkhd)
           442 MiB available memory on the node where the printing process lives
------------------
     ethr =  4.45E-09,  avg # of iterations =  5.0

     negative rho (up, down):  3.896E-01 0.000E+00

     total cpu time spent up to now is        6.0 secs

     total energy              =      -2.21331383 Ry
     estimated scf accuracy    <       0.00000809 Ry

     iteration # 14     ecut=    10.00 Ry     beta= 0.70
     Davidson diagonalization with overlap

---- Real-time Memory Report at c_bands before calling an iterative solver
           133 MiB given to the printing process from OS
             0 MiB allocation reported by mallinfo(arena+hblkhd)
           442 MiB available memory on the node where the printing process lives
------------------
     ethr =  4.45E-09,  avg # of iterations =  4.0

     negative rho (up, down):  3.897E-01 0.000E+00

     total cpu time spent up to now is        6.2 secs

     total energy              =      -2.21314190 Ry
     estimated scf accuracy    <       0.00002146 Ry

     iteration # 15     ecut=    10.00 Ry     beta= 0.70
     Davidson diagonalization with overlap

---- Real-time Memory Report at c_bands before calling an iterative solver
           133 MiB given to the printing process from OS
             0 MiB allocation reported by mallinfo(arena+hblkhd)
           442 MiB available memory on the node where the printing process lives
------------------
     ethr =  4.45E-09,  avg # of iterations =  4.0

     negative rho (up, down):  3.897E-01 0.000E+00

     total cpu time spent up to now is        6.4 secs

     total energy              =      -2.21310986 Ry
     estimated scf accuracy    <       0.00000991 Ry

     iteration # 16     ecut=    10.00 Ry     beta= 0.70
     Davidson diagonalization with overlap

---- Real-time Memory Report at c_bands before calling an iterative solver
           133 MiB given to the printing process from OS
             0 MiB allocation reported by mallinfo(arena+hblkhd)
           442 MiB available memory on the node where the printing process lives
------------------
     ethr =  4.45E-09,  avg # of iterations =  4.0

     negative rho (up, down):  3.899E-01 0.000E+00

     total cpu time spent up to now is        6.7 secs

     total energy              =      -2.21301569 Ry
     estimated scf accuracy    <       0.00000670 Ry

     iteration # 17     ecut=    10.00 Ry     beta= 0.70
     Davidson diagonalization with overlap

---- Real-time Memory Report at c_bands before calling an iterative solver
           133 MiB given to the printing process from OS
             0 MiB allocation reported by mallinfo(arena+hblkhd)
           442 MiB available memory on the node where the printing process lives
------------------
     ethr =  4.45E-09,  avg # of iterations =  5.0

     negative rho (up, down):  3.899E-01 0.000E+00

     total cpu time spent up to now is        6.9 secs

     total energy              =      -2.21311368 Ry
     estimated scf accuracy    <       0.00000145 Ry

     iteration # 18     ecut=    10.00 Ry     beta= 0.70
     Davidson diagonalization with overlap

---- Real-time Memory Report at c_bands before calling an iterative solver
           133 MiB given to the printing process from OS
             0 MiB allocation reported by mallinfo(arena+hblkhd)
           442 MiB available memory on the node where the printing process lives
------------------
     ethr =  4.45E-09,  avg # of iterations =  4.0

     negative rho (up, down):  3.900E-01 0.000E+00

     total cpu time spent up to now is        7.1 secs

     total energy              =      -2.21311470 Ry
     estimated scf accuracy    <       0.00000052 Ry

     iteration # 19     ecut=    10.00 Ry     beta= 0.70
     Davidson diagonalization with overlap

---- Real-time Memory Report at c_bands before calling an iterative solver
           133 MiB given to the printing process from OS
             0 MiB allocation reported by mallinfo(arena+hblkhd)
           442 MiB available memory on the node where the printing process lives
------------------
     ethr =  4.45E-09,  avg # of iterations =  3.0

     negative rho (up, down):  3.899E-01 0.000E+00

     total cpu time spent up to now is        7.4 secs

     total energy              =      -2.21313198 Ry
     estimated scf accuracy    <       0.00000088 Ry

     iteration # 20     ecut=    10.00 Ry     beta= 0.70
     Davidson diagonalization with overlap

---- Real-time Memory Report at c_bands before calling an iterative solver
           133 MiB given to the printing process from OS
             0 MiB allocation reported by mallinfo(arena+hblkhd)
           442 MiB available memory on the node where the printing process lives
------------------
     ethr =  4.45E-09,  avg # of iterations =  4.0

     negative rho (up, down):  3.900E-01 0.000E+00

     total cpu time spent up to now is        7.6 secs

     total energy              =      -2.21308570 Ry
     estimated scf accuracy    <       0.00000032 Ry

     iteration # 21     ecut=    10.00 Ry     beta= 0.70
     Davidson diagonalization with overlap

---- Real-time Memory Report at c_bands before calling an iterative solver
           133 MiB given to the printing process from OS
             0 MiB allocation reported by mallinfo(arena+hblkhd)
           442 MiB available memory on the node where the printing process lives
------------------
     ethr =  4.45E-09,  avg # of iterations =  4.0

     negative rho (up, down):  3.900E-01 0.000E+00

     total cpu time spent up to now is        7.8 secs

     total energy              =      -2.21309172 Ry
     estimated scf accuracy    <       0.00000159 Ry

     iteration # 22     ecut=    10.00 Ry     beta= 0.70
     Davidson diagonalization with overlap

---- Real-time Memory Report at c_bands before calling an iterative solver
           133 MiB given to the printing process from OS
             0 MiB allocation reported by mallinfo(arena+hblkhd)
           442 MiB available memory on the node where the printing process lives
------------------
     ethr =  4.45E-09,  avg # of iterations =  3.0

     negative rho (up, down):  3.900E-01 0.000E+00

     total cpu time spent up to now is        8.1 secs

     total energy              =      -2.21308234 Ry
     estimated scf accuracy    <       0.00000132 Ry

     iteration # 23     ecut=    10.00 Ry     beta= 0.70
     Davidson diagonalization with overlap

---- Real-time Memory Report at c_bands before calling an iterative solver
           133 MiB given to the printing process from OS
             0 MiB allocation reported by mallinfo(arena+hblkhd)
           442 MiB available memory on the node where the printing process lives
------------------
     ethr =  4.45E-09,  avg # of iterations =  4.0

     negative rho (up, down):  3.900E-01 0.000E+00

     total cpu time spent up to now is        8.3 secs

     total energy              =      -2.21304955 Ry
     estimated scf accuracy    <       0.00000078 Ry

     iteration # 24     ecut=    10.00 Ry     beta= 0.70
     Davidson diagonalization with overlap

---- Real-time Memory Report at c_bands before calling an iterative solver
           133 MiB given to the printing process from OS
             0 MiB allocation reported by mallinfo(arena+hblkhd)
           442 MiB available memory on the node where the printing process lives
------------------
     ethr =  4.45E-09,  avg # of iterations =  4.0

     negative rho (up, down):  3.899E-01 0.000E+00

     total cpu time spent up to now is        8.5 secs

     total energy              =      -2.21314853 Ry
     estimated scf accuracy    <       0.00000074 Ry

     iteration # 25     ecut=    10.00 Ry     beta= 0.70
     Davidson diagonalization with overlap

---- Real-time Memory Report at c_bands before calling an iterative solver
           133 MiB given to the printing process from OS
             0 MiB allocation reported by mallinfo(arena+hblkhd)
           442 MiB available memory on the node where the printing process lives
------------------
     ethr =  4.45E-09,  avg # of iterations =  3.0

     negative rho (up, down):  3.900E-01 0.000E+00

     total cpu time spent up to now is        8.8 secs

     total energy              =      -2.21310390 Ry
     estimated scf accuracy    <       0.00000079 Ry

     iteration # 26     ecut=    10.00 Ry     beta= 0.70
     Davidson diagonalization with overlap

---- Real-time Memory Report at c_bands before calling an iterative solver
           133 MiB given to the printing process from OS
             0 MiB allocation reported by mallinfo(arena+hblkhd)
           442 MiB available memory on the node where the printing process lives
------------------
     ethr =  4.45E-09,  avg # of iterations =  4.0

     negative rho (up, down):  3.900E-01 0.000E+00

     total cpu time spent up to now is        9.0 secs

     total energy              =      -2.21310506 Ry
     estimated scf accuracy    <       0.00000032 Ry

     iteration # 27     ecut=    10.00 Ry     beta= 0.70
     Davidson diagonalization with overlap

---- Real-time Memory Report at c_bands before calling an iterative solver
           133 MiB given to the printing process from OS
             0 MiB allocation reported by mallinfo(arena+hblkhd)
           442 MiB available memory on the node where the printing process lives
------------------
     ethr =  4.45E-09,  avg # of iterations =  4.0

     negative rho (up, down):  3.899E-01 0.000E+00

     total cpu time spent up to now is        9.2 secs

     total energy              =      -2.21311819 Ry
     estimated scf accuracy    <       0.00000004 Ry

     iteration # 28     ecut=    10.00 Ry     beta= 0.70
     Davidson diagonalization with overlap

---- Real-time Memory Report at c_bands before calling an iterative solver
           133 MiB given to the printing process from OS
             0 MiB allocation reported by mallinfo(arena+hblkhd)
           442 MiB available memory on the node where the printing process lives
------------------
     ethr =  2.24E-09,  avg # of iterations =  4.0

     negative rho (up, down):  3.899E-01 0.000E+00

     total cpu time spent up to now is        9.5 secs

     total energy              =      -2.21313134 Ry
     estimated scf accuracy    <       0.00000008 Ry

     iteration # 29     ecut=    10.00 Ry     beta= 0.70
     Davidson diagonalization with overlap

---- Real-time Memory Report at c_bands before calling an iterative solver
           133 MiB given to the printing process from OS
             0 MiB allocation reported by mallinfo(arena+hblkhd)
           442 MiB available memory on the node where the printing process lives
------------------
     ethr =  2.24E-09,  avg # of iterations =  4.0

     negative rho (up, down):  3.899E-01 0.000E+00

     total cpu time spent up to now is        9.7 secs

     total energy              =      -2.21312244 Ry
     estimated scf accuracy    <       0.00000011 Ry

     iteration # 30     ecut=    10.00 Ry     beta= 0.70
     Davidson diagonalization with overlap

---- Real-time Memory Report at c_bands before calling an iterative solver
           133 MiB given to the printing process from OS
             0 MiB allocation reported by mallinfo(arena+hblkhd)
           442 MiB available memory on the node where the printing process lives
------------------
     ethr =  2.24E-09,  avg # of iterations =  3.0

     negative rho (up, down):  3.899E-01 0.000E+00

     total cpu time spent up to now is        9.9 secs

     total energy              =      -2.21313312 Ry
     estimated scf accuracy    <       0.00000015 Ry

     iteration # 31     ecut=    10.00 Ry     beta= 0.70
     Davidson diagonalization with overlap

---- Real-time Memory Report at c_bands before calling an iterative solver
           133 MiB given to the printing process from OS
             0 MiB allocation reported by mallinfo(arena+hblkhd)
           442 MiB available memory on the node where the printing process lives
------------------
     ethr =  2.24E-09,  avg # of iterations =  3.0

     negative rho (up, down):  3.900E-01 0.000E+00

     total cpu time spent up to now is       10.2 secs

     total energy              =      -2.21308433 Ry
     estimated scf accuracy    <       0.00000019 Ry

     iteration # 32     ecut=    10.00 Ry     beta= 0.70
     Davidson diagonalization with overlap

---- Real-time Memory Report at c_bands before calling an iterative solver
           133 MiB given to the printing process from OS
             0 MiB allocation reported by mallinfo(arena+hblkhd)
           442 MiB available memory on the node where the printing process lives
------------------
     ethr =  2.24E-09,  avg # of iterations =  3.0

     negative rho (up, down):  3.900E-01 0.000E+00

     total cpu time spent up to now is       10.4 secs

     total energy              =      -2.21309620 Ry
     estimated scf accuracy    <       0.00000008 Ry

     iteration # 33     ecut=    10.00 Ry     beta= 0.70
     Davidson diagonalization with overlap

---- Real-time Memory Report at c_bands before calling an iterative solver
           133 MiB given to the printing process from OS
             0 MiB allocation reported by mallinfo(arena+hblkhd)
           442 MiB available memory on the node where the printing process lives
------------------
     ethr =  2.24E-09,  avg # of iterations =  4.0

     negative rho (up, down):  3.900E-01 0.000E+00

     total cpu time spent up to now is       10.6 secs

     total energy              =      -2.21313128 Ry
     estimated scf accuracy    <       0.00000003 Ry

     iteration # 34     ecut=    10.00 Ry     beta= 0.70
     Davidson diagonalization with overlap

---- Real-time Memory Report at c_bands before calling an iterative solver
           133 MiB given to the printing process from OS
             0 MiB allocation reported by mallinfo(arena+hblkhd)
           442 MiB available memory on the node where the printing process lives
------------------
     ethr =  1.72E-09,  avg # of iterations =  3.0

     negative rho (up, down):  3.900E-01 0.000E+00

     total cpu time spent up to now is       10.8 secs

     total energy              =      -2.21311989 Ry
     estimated scf accuracy    <       0.00000003 Ry

     iteration # 35     ecut=    10.00 Ry     beta= 0.70
     Davidson diagonalization with overlap

---- Real-time Memory Report at c_bands before calling an iterative solver
           133 MiB given to the printing process from OS
             0 MiB allocation reported by mallinfo(arena+hblkhd)
           442 MiB available memory on the node where the printing process lives
------------------
     ethr =  1.72E-09,  avg # of iterations =  4.0

     negative rho (up, down):  3.900E-01 0.000E+00

     total cpu time spent up to now is       11.1 secs

     total energy              =      -2.21312953 Ry
     estimated scf accuracy    <       0.00000010 Ry

     iteration # 36     ecut=    10.00 Ry     beta= 0.70
     Davidson diagonalization with overlap

---- Real-time Memory Report at c_bands before calling an iterative solver
           133 MiB given to the printing process from OS
             0 MiB allocation reported by mallinfo(arena+hblkhd)
           442 MiB available memory on the node where the printing process lives
------------------
     ethr =  1.72E-09,  avg # of iterations =  4.0

     negative rho (up, down):  3.900E-01 0.000E+00

     total cpu time spent up to now is       11.3 secs

     total energy              =      -2.21313173 Ry
     estimated scf accuracy    <       0.00000004 Ry

     iteration # 37     ecut=    10.00 Ry     beta= 0.70
     Davidson diagonalization with overlap

---- Real-time Memory Report at c_bands before calling an iterative solver
           133 MiB given to the printing process from OS
             0 MiB allocation reported by mallinfo(arena+hblkhd)
           442 MiB available memory on the node where the printing process lives
------------------
     ethr =  1.72E-09,  avg # of iterations =  2.0

     negative rho (up, down):  3.901E-01 0.000E+00

     total cpu time spent up to now is       11.5 secs

     total energy              =      -2.21306910 Ry
     estimated scf accuracy    <       0.00000003 Ry

     iteration # 38     ecut=    10.00 Ry     beta= 0.70
     Davidson diagonalization with overlap

---- Real-time Memory Report at c_bands before calling an iterative solver
           133 MiB given to the printing process from OS
             0 MiB allocation reported by mallinfo(arena+hblkhd)
           442 MiB available memory on the node where the printing process lives
------------------
     ethr =  1.46E-09,  avg # of iterations =  4.0

     negative rho (up, down):  3.901E-01 0.000E+00

     total cpu time spent up to now is       11.8 secs

     total energy              =      -2.21309588 Ry
     estimated scf accuracy    <       0.00000006 Ry

     iteration # 39     ecut=    10.00 Ry     beta= 0.70
     Davidson diagonalization with overlap

---- Real-time Memory Report at c_bands before calling an iterative solver
           133 MiB given to the printing process from OS
             0 MiB allocation reported by mallinfo(arena+hblkhd)
           442 MiB available memory on the node where the printing process lives
------------------
     ethr =  1.46E-09,  avg # of iterations =  3.0

     negative rho (up, down):  3.900E-01 0.000E+00

     total cpu time spent up to now is       12.0 secs

     total energy              =      -2.21313530 Ry
     estimated scf accuracy    <       0.00000003 Ry

     iteration # 40     ecut=    10.00 Ry     beta= 0.70
     Davidson diagonalization with overlap

---- Real-time Memory Report at c_bands before calling an iterative solver
           133 MiB given to the printing process from OS
             0 MiB allocation reported by mallinfo(arena+hblkhd)
           442 MiB available memory on the node where the printing process lives
------------------
     ethr =  1.45E-09,  avg # of iterations =  4.0

     negative rho (up, down):  3.900E-01 0.000E+00

     total cpu time spent up to now is       12.2 secs

     total energy              =      -2.21313493 Ry
     estimated scf accuracy    <       0.00000004 Ry

     iteration # 41     ecut=    10.00 Ry     beta= 0.70
     Davidson diagonalization with overlap

---- Real-time Memory Report at c_bands before calling an iterative solver
           133 MiB given to the printing process from OS
             0 MiB allocation reported by mallinfo(arena+hblkhd)
           442 MiB available memory on the node where the printing process lives
------------------
     ethr =  1.45E-09,  avg # of iterations =  2.0

     negative rho (up, down):  3.900E-01 0.000E+00

     total cpu time spent up to now is       12.4 secs

     total energy              =      -2.21313903 Ry
     estimated scf accuracy    <       0.00000005 Ry

     iteration # 42     ecut=    10.00 Ry     beta= 0.70
     Davidson diagonalization with overlap

---- Real-time Memory Report at c_bands before calling an iterative solver
           133 MiB given to the printing process from OS
             0 MiB allocation reported by mallinfo(arena+hblkhd)
           442 MiB available memory on the node where the printing process lives
------------------
     ethr =  1.45E-09,  avg # of iterations =  2.0

     negative rho (up, down):  3.900E-01 0.000E+00

     total cpu time spent up to now is       12.7 secs

     total energy              =      -2.21315970 Ry
     estimated scf accuracy    <       0.00000005 Ry

     iteration # 43     ecut=    10.00 Ry     beta= 0.70
     Davidson diagonalization with overlap

---- Real-time Memory Report at c_bands before calling an iterative solver
           133 MiB given to the printing process from OS
             0 MiB allocation reported by mallinfo(arena+hblkhd)
           442 MiB available memory on the node where the printing process lives
------------------
     ethr =  1.45E-09,  avg # of iterations =  3.0

     negative rho (up, down):  3.900E-01 0.000E+00

     total cpu time spent up to now is       12.9 secs

     total energy              =      -2.21316080 Ry
     estimated scf accuracy    <       0.00000007 Ry

     iteration # 44     ecut=    10.00 Ry     beta= 0.70
     Davidson diagonalization with overlap

---- Real-time Memory Report at c_bands before calling an iterative solver
           133 MiB given to the printing process from OS
             0 MiB allocation reported by mallinfo(arena+hblkhd)
           442 MiB available memory on the node where the printing process lives
------------------
     ethr =  1.45E-09,  avg # of iterations =  2.0

     negative rho (up, down):  3.901E-01 0.000E+00

     total cpu time spent up to now is       13.1 secs

     total energy              =      -2.21304777 Ry
     estimated scf accuracy    <       0.00000009 Ry

     iteration # 45     ecut=    10.00 Ry     beta= 0.70
     Davidson diagonalization with overlap

---- Real-time Memory Report at c_bands before calling an iterative solver
           133 MiB given to the printing process from OS
             0 MiB allocation reported by mallinfo(arena+hblkhd)
           442 MiB available memory on the node where the printing process lives
------------------
     ethr =  1.45E-09,  avg # of iterations =  4.0

     negative rho (up, down):  3.900E-01 0.000E+00

     total cpu time spent up to now is       13.4 secs

     total energy              =      -2.21309087 Ry
     estimated scf accuracy    <       0.00000007 Ry

     iteration # 46     ecut=    10.00 Ry     beta= 0.70
     Davidson diagonalization with overlap

---- Real-time Memory Report at c_bands before calling an iterative solver
           133 MiB given to the printing process from OS
             0 MiB allocation reported by mallinfo(arena+hblkhd)
           442 MiB available memory on the node where the printing process lives
------------------
     ethr =  1.45E-09,  avg # of iterations =  4.0

     negative rho (up, down):  3.900E-01 0.000E+00

     total cpu time spent up to now is       13.6 secs

     total energy              =      -2.21312876 Ry
     estimated scf accuracy    <       0.00000001 Ry

     iteration # 47     ecut=    10.00 Ry     beta= 0.70
     Davidson diagonalization with overlap

---- Real-time Memory Report at c_bands before calling an iterative solver
           133 MiB given to the printing process from OS
             0 MiB allocation reported by mallinfo(arena+hblkhd)
           442 MiB available memory on the node where the printing process lives
------------------
     ethr =  6.85E-10,  avg # of iterations =  4.0

     negative rho (up, down):  3.900E-01 0.000E+00

     total cpu time spent up to now is       13.9 secs

     total energy              =      -2.21313058 Ry
     estimated scf accuracy    <       0.00000004 Ry

     iteration # 48     ecut=    10.00 Ry     beta= 0.70
     Davidson diagonalization with overlap

---- Real-time Memory Report at c_bands before calling an iterative solver
           133 MiB given to the printing process from OS
             0 MiB allocation reported by mallinfo(arena+hblkhd)
           442 MiB available memory on the node where the printing process lives
------------------
     ethr =  6.85E-10,  avg # of iterations =  2.0

     negative rho (up, down):  3.900E-01 0.000E+00

     total cpu time spent up to now is       14.1 secs

     total energy              =      -2.21313666 Ry
     estimated scf accuracy    <       0.00000004 Ry

     iteration # 49     ecut=    10.00 Ry     beta= 0.70
     Davidson diagonalization with overlap

---- Real-time Memory Report at c_bands before calling an iterative solver
           133 MiB given to the printing process from OS
             0 MiB allocation reported by mallinfo(arena+hblkhd)
           442 MiB available memory on the node where the printing process lives
------------------
     ethr =  6.85E-10,  avg # of iterations =  2.0

     negative rho (up, down):  3.900E-01 0.000E+00

     total cpu time spent up to now is       14.3 secs

     total energy              =      -2.21309194 Ry
     estimated scf accuracy    <       0.00000004 Ry

     iteration # 50     ecut=    10.00 Ry     beta= 0.70
     Davidson diagonalization with overlap

---- Real-time Memory Report at c_bands before calling an iterative solver
           133 MiB given to the printing process from OS
             0 MiB allocation reported by mallinfo(arena+hblkhd)
           442 MiB available memory on the node where the printing process lives
------------------
     ethr =  6.85E-10,  avg # of iterations =  4.0

     negative rho (up, down):  3.900E-01 0.000E+00

     total cpu time spent up to now is       14.5 secs

     End of self-consistent calculation

          k =-0.5000-0.5000-0.5000 ( 14400 PWs)   bands (ev):

   -11.3549  -1.6039

     occupation numbers 
     1.0000   0.0000

     highest occupied, lowest unoccupied level (ev):   -11.3549   -1.6039

!    total energy              =      -2.21308817 Ry
     estimated scf accuracy    <          8.0E-09 Ry

     The total energy is the sum of the following terms:
     one-electron contribution =      -4.40977639 Ry
     hartree contribution      =       2.37654674 Ry
     xc contribution           =      -1.43115291 Ry
     ewald contribution        =       1.25129439 Ry

     convergence has been achieved in  50 iterations

     Forces acting on atoms (cartesian axes, Ry/au):

     atom    1 type  1   force =    -0.20733314    0.00000000    0.00000000
     atom    2 type  1   force =     0.20733314    0.00000000    0.00000000
     The non-local contrib.  to forces
     atom    1 type  1   force =     0.16001777    0.00000000    0.00000000
     atom    2 type  1   force =    -0.16585400    0.00000000    0.00000000
     The ionic contribution  to forces
     atom    1 type  1   force =    -1.32703465   -0.00000000   -0.00000000
     atom    2 type  1   force =     1.32703465    0.00000000   -0.00000000
     The local contribution  to forces
     atom    1 type  1   force =     0.95600487    0.00000000    0.00000000
     atom    2 type  1   force =    -0.95667319    0.00000000    0.00000000
     The core correction contribution to forces
     atom    1 type  1   force =     0.00000000    0.00000000    0.00000000
     atom    2 type  1   force =     0.00000000    0.00000000    0.00000000
     The Hubbard contrib.    to forces
     atom    1 type  1   force =     0.00000000    0.00000000    0.00000000
     atom    2 type  1   force =     0.00000000    0.00000000    0.00000000
     The SCF correction term to forces
     atom    1 type  1   force =     0.00071685    0.00000000    0.00000000
     atom    2 type  1   force =    -0.00013632    0.00000000    0.00000000

     Total force =     0.293213     Total SCF correction =     0.000730
     Energy error            =      3.3E-02 Ry
     Gradient error          =      2.1E-01 Ry/Bohr

     number of scf cycles    =   2
     number of bfgs steps    =   1

     energy             old  =      -2.2462209804 Ry
     energy             new  =      -2.2130881743 Ry

     CASE: energy            _new > energy            _old

     new trust radius        =       0.0595230100 bohr
     new conv_thr            =       0.0000000100 Ry


ATOMIC_POSITIONS (angstrom)
H             0.0314982204        0.0000000000        0.0000000000
H             0.8085017796        0.0000000000        0.0000000000



     Writing config-only to output data dir ./.save/
     NEW-OLD atomic charge density approx. for the potential

     negative rho (up, down):  3.706E-01 0.000E+00

     total cpu time spent up to now is       14.8 secs

     Self-consistent Calculation

     iteration #  1     ecut=    10.00 Ry     beta= 0.70
     Davidson diagonalization with overlap

---- Real-time Memory Report at c_bands before calling an iterative solver
           133 MiB given to the printing process from OS
             0 MiB allocation reported by mallinfo(arena+hblkhd)
           506 MiB available memory on the node where the printing process lives
------------------
     ethr =  1.00E-06,  avg # of iterations =  8.0

     negative rho (up, down):  3.278E-01 0.000E+00

     total cpu time spent up to now is       15.0 secs

     total energy              =      -2.24291454 Ry
     estimated scf accuracy    <       0.00390705 Ry

     iteration #  2     ecut=    10.00 Ry     beta= 0.70
     Davidson diagonalization with overlap

---- Real-time Memory Report at c_bands before calling an iterative solver
           133 MiB given to the printing process from OS
             0 MiB allocation reported by mallinfo(arena+hblkhd)
           468 MiB available memory on the node where the printing process lives
------------------
     ethr =  1.95E-04,  avg # of iterations =  2.0

     negative rho (up, down):  3.186E-01 0.000E+00

     total cpu time spent up to now is       15.2 secs

     total energy              =      -2.24813362 Ry
     estimated scf accuracy    <       0.00004363 Ry

     iteration #  3     ecut=    10.00 Ry     beta= 0.70
     Davidson diagonalization with overlap

---- Real-time Memory Report at c_bands before calling an iterative solver
           133 MiB given to the printing process from OS
             0 MiB allocation reported by mallinfo(arena+hblkhd)
           465 MiB available memory on the node where the printing process lives
------------------
     ethr =  2.18E-06,  avg # of iterations =  6.0

     negative rho (up, down):  3.183E-01 0.000E+00

     total cpu time spent up to now is       15.5 secs

     total energy              =      -2.24837948 Ry
     estimated scf accuracy    <       0.00000832 Ry

     iteration #  4     ecut=    10.00 Ry     beta= 0.70
     Davidson diagonalization with overlap

---- Real-time Memory Report at c_bands before calling an iterative solver
           133 MiB given to the printing process from OS
             0 MiB allocation reported by mallinfo(arena+hblkhd)
           461 MiB available memory on the node where the printing process lives
------------------
     ethr =  4.16E-07,  avg # of iterations =  3.0

     negative rho (up, down):  3.171E-01 0.000E+00

     total cpu time spent up to now is       15.7 secs

     total energy              =      -2.24907192 Ry
     estimated scf accuracy    <       0.00000057 Ry

     iteration #  5     ecut=    10.00 Ry     beta= 0.70
     Davidson diagonalization with overlap

---- Real-time Memory Report at c_bands before calling an iterative solver
           133 MiB given to the printing process from OS
             0 MiB allocation reported by mallinfo(arena+hblkhd)
           458 MiB available memory on the node where the printing process lives
------------------
     ethr =  2.85E-08,  avg # of iterations =  4.0

     negative rho (up, down):  3.172E-01 0.000E+00

     total cpu time spent up to now is       15.9 secs

     total energy              =      -2.24900800 Ry
     estimated scf accuracy    <       0.00000278 Ry

     iteration #  6     ecut=    10.00 Ry     beta= 0.70
     Davidson diagonalization with overlap

---- Real-time Memory Report at c_bands before calling an iterative solver
           133 MiB given to the printing process from OS
             0 MiB allocation reported by mallinfo(arena+hblkhd)
           454 MiB available memory on the node where the printing process lives
------------------
     ethr =  2.85E-08,  avg # of iterations =  4.0

     negative rho (up, down):  3.172E-01 0.000E+00

     total cpu time spent up to now is       16.2 secs

     total energy              =      -2.24904304 Ry
     estimated scf accuracy    <       0.00000125 Ry

     iteration #  7     ecut=    10.00 Ry     beta= 0.70
     Davidson diagonalization with overlap

---- Real-time Memory Report at c_bands before calling an iterative solver
           133 MiB given to the printing process from OS
             0 MiB allocation reported by mallinfo(arena+hblkhd)
           451 MiB available memory on the node where the printing process lives
------------------
     ethr =  2.85E-08,  avg # of iterations =  4.0

     negative rho (up, down):  3.171E-01 0.000E+00

     total cpu time spent up to now is       16.4 secs

     total energy              =      -2.24900439 Ry
     estimated scf accuracy    <       0.00000116 Ry

     iteration #  8     ecut=    10.00 Ry     beta= 0.70
     Davidson diagonalization with overlap

---- Real-time Memory Report at c_bands before calling an iterative solver
           133 MiB given to the printing process from OS
             0 MiB allocation reported by mallinfo(arena+hblkhd)
           447 MiB available memory on the node where the printing process lives
------------------
     ethr =  2.85E-08,  avg # of iterations =  4.0

     negative rho (up, down):  3.171E-01 0.000E+00

     total cpu time spent up to now is       16.7 secs

     total energy              =      -2.24901495 Ry
     estimated scf accuracy    <       0.00000208 Ry

     iteration #  9     ecut=    10.00 Ry     beta= 0.70
     Davidson diagonalization with overlap

---- Real-time Memory Report at c_bands before calling an iterative solver
           133 MiB given to the printing process from OS
             0 MiB allocation reported by mallinfo(arena+hblkhd)
           444 MiB available memory on the node where the printing process lives
------------------
     ethr =  2.85E-08,  avg # of iterations =  4.0

     negative rho (up, down):  3.172E-01 0.000E+00

     total cpu time spent up to now is       16.9 secs

     total energy              =      -2.24895564 Ry
     estimated scf accuracy    <       0.00000129 Ry

     iteration # 10     ecut=    10.00 Ry     beta= 0.70
     Davidson diagonalization with overlap

---- Real-time Memory Report at c_bands before calling an iterative solver
           133 MiB given to the printing process from OS
             0 MiB allocation reported by mallinfo(arena+hblkhd)
           440 MiB available memory on the node where the printing process lives
------------------
     ethr =  2.85E-08,  avg # of iterations =  4.0

     negative rho (up, down):  3.172E-01 0.000E+00

     total cpu time spent up to now is       17.2 secs

     total energy              =      -2.24904408 Ry
     estimated scf accuracy    <       0.00000544 Ry

     iteration # 11     ecut=    10.00 Ry     beta= 0.70
     Davidson diagonalization with overlap

---- Real-time Memory Report at c_bands before calling an iterative solver
           133 MiB given to the printing process from OS
             0 MiB allocation reported by mallinfo(arena+hblkhd)
           440 MiB available memory on the node where the printing process lives
------------------
     ethr =  2.85E-08,  avg # of iterations =  2.0

     negative rho (up, down):  3.172E-01 0.000E+00

     total cpu time spent up to now is       17.4 secs

     total energy              =      -2.24903539 Ry
     estimated scf accuracy    <       0.00000454 Ry

     iteration # 12     ecut=    10.00 Ry     beta= 0.70
     Davidson diagonalization with overlap

---- Real-time Memory Report at c_bands before calling an iterative solver
           133 MiB given to the printing process from OS
             0 MiB allocation reported by mallinfo(arena+hblkhd)
           440 MiB available memory on the node where the printing process lives
------------------
     ethr =  2.85E-08,  avg # of iterations =  3.0

     negative rho (up, down):  3.172E-01 0.000E+00

     total cpu time spent up to now is       17.6 secs

     total energy              =      -2.24907487 Ry
     estimated scf accuracy    <       0.00000282 Ry

     iteration # 13     ecut=    10.00 Ry     beta= 0.70
     Davidson diagonalization with overlap

---- Real-time Memory Report at c_bands before calling an iterative solver
           133 MiB given to the printing process from OS
             0 MiB allocation reported by mallinfo(arena+hblkhd)
           440 MiB available memory on the node where the printing process lives
------------------
     ethr =  2.85E-08,  avg # of iterations =  3.0

     negative rho (up, down):  3.172E-01 0.000E+00

     total cpu time spent up to now is       17.8 secs

     total energy              =      -2.24895878 Ry
     estimated scf accuracy    <       0.00000448 Ry

     iteration # 14     ecut=    10.00 Ry     beta= 0.70
     Davidson diagonalization with overlap

---- Real-time Memory Report at c_bands before calling an iterative solver
           133 MiB given to the printing process from OS
             0 MiB allocation reported by mallinfo(arena+hblkhd)
           440 MiB available memory on the node where the printing process lives
------------------
     ethr =  2.85E-08,  avg # of iterations =  4.0

     negative rho (up, down):  3.172E-01 0.000E+00

     total cpu time spent up to now is       18.1 secs

     total energy              =      -2.24904320 Ry
     estimated scf accuracy    <       0.00000117 Ry

     iteration # 15     ecut=    10.00 Ry     beta= 0.70
     Davidson diagonalization with overlap

---- Real-time Memory Report at c_bands before calling an iterative solver
           133 MiB given to the printing process from OS
             0 MiB allocation reported by mallinfo(arena+hblkhd)
           440 MiB available memory on the node where the printing process lives
------------------
     ethr =  2.85E-08,  avg # of iterations =  3.0

     negative rho (up, down):  3.172E-01 0.000E+00

     total cpu time spent up to now is       18.3 secs

     total energy              =      -2.24897445 Ry
     estimated scf accuracy    <       0.00000054 Ry

     iteration # 16     ecut=    10.00 Ry     beta= 0.70
     Davidson diagonalization with overlap

---- Real-time Memory Report at c_bands before calling an iterative solver
           133 MiB given to the printing process from OS
             0 MiB allocation reported by mallinfo(arena+hblkhd)
           440 MiB available memory on the node where the printing process lives
------------------
     ethr =  2.70E-08,  avg # of iterations =  4.0

     negative rho (up, down):  3.172E-01 0.000E+00

     total cpu time spent up to now is       18.5 secs

     total energy              =      -2.24906781 Ry
     estimated scf accuracy    <       0.00000490 Ry

     iteration # 17     ecut=    10.00 Ry     beta= 0.70
     Davidson diagonalization with overlap

---- Real-time Memory Report at c_bands before calling an iterative solver
           133 MiB given to the printing process from OS
             0 MiB allocation reported by mallinfo(arena+hblkhd)
           440 MiB available memory on the node where the printing process lives
------------------
     ethr =  2.70E-08,  avg # of iterations =  3.0

     negative rho (up, down):  3.172E-01 0.000E+00

     total cpu time spent up to now is       18.8 secs

     total energy              =      -2.24901286 Ry
     estimated scf accuracy    <       0.00000747 Ry

     iteration # 18     ecut=    10.00 Ry     beta= 0.70
     Davidson diagonalization with overlap

---- Real-time Memory Report at c_bands before calling an iterative solver
           133 MiB given to the printing process from OS
             0 MiB allocation reported by mallinfo(arena+hblkhd)
           440 MiB available memory on the node where the printing process lives
------------------
     ethr =  2.70E-08,  avg # of iterations =  3.0

     negative rho (up, down):  3.172E-01 0.000E+00

     total cpu time spent up to now is       19.0 secs

     total energy              =      -2.24904420 Ry
     estimated scf accuracy    <       0.00000293 Ry

     iteration # 19     ecut=    10.00 Ry     beta= 0.70
     Davidson diagonalization with overlap

---- Real-time Memory Report at c_bands before calling an iterative solver
           133 MiB given to the printing process from OS
             0 MiB allocation reported by mallinfo(arena+hblkhd)
           440 MiB available memory on the node where the printing process lives
------------------
     ethr =  2.70E-08,  avg # of iterations =  3.0

     negative rho (up, down):  3.172E-01 0.000E+00

     total cpu time spent up to now is       19.2 secs

     total energy              =      -2.24902460 Ry
     estimated scf accuracy    <       0.00000180 Ry

     iteration # 20     ecut=    10.00 Ry     beta= 0.70
     Davidson diagonalization with overlap

---- Real-time Memory Report at c_bands before calling an iterative solver
           133 MiB given to the printing process from OS
             0 MiB allocation reported by mallinfo(arena+hblkhd)
           440 MiB available memory on the node where the printing process lives
------------------
     ethr =  2.70E-08,  avg # of iterations =  2.0

     negative rho (up, down):  3.172E-01 0.000E+00

     total cpu time spent up to now is       19.4 secs

     total energy              =      -2.24901393 Ry
     estimated scf accuracy    <       0.00000167 Ry

     iteration # 21     ecut=    10.00 Ry     beta= 0.70
     Davidson diagonalization with overlap

---- Real-time Memory Report at c_bands before calling an iterative solver
           133 MiB given to the printing process from OS
             0 MiB allocation reported by mallinfo(arena+hblkhd)
           440 MiB available memory on the node where the printing process lives
------------------
     ethr =  2.70E-08,  avg # of iterations =  2.0

     negative rho (up, down):  3.172E-01 0.000E+00

     total cpu time spent up to now is       19.7 secs

     total energy              =      -2.24903457 Ry
     estimated scf accuracy    <       0.00000201 Ry

     iteration # 22     ecut=    10.00 Ry     beta= 0.70
     Davidson diagonalization with overlap

---- Real-time Memory Report at c_bands before calling an iterative solver
           133 MiB given to the printing process from OS
             0 MiB allocation reported by mallinfo(arena+hblkhd)
           440 MiB available memory on the node where the printing process lives
------------------
     ethr =  2.70E-08,  avg # of iterations =  2.0

     negative rho (up, down):  3.172E-01 0.000E+00

     total cpu time spent up to now is       19.9 secs

     total energy              =      -2.24903549 Ry
     estimated scf accuracy    <       0.00000246 Ry

     iteration # 23     ecut=    10.00 Ry     beta= 0.70
     Davidson diagonalization with overlap

---- Real-time Memory Report at c_bands before calling an iterative solver
           133 MiB given to the printing process from OS
             0 MiB allocation reported by mallinfo(arena+hblkhd)
           440 MiB available memory on the node where the printing process lives
------------------
     ethr =  2.70E-08,  avg # of iterations =  3.0

     negative rho (up, down):  3.172E-01 0.000E+00

     total cpu time spent up to now is       20.1 secs

     total energy              =      -2.24902665 Ry
     estimated scf accuracy    <       0.00000165 Ry

     iteration # 24     ecut=    10.00 Ry     beta= 0.70
     Davidson diagonalization with overlap

---- Real-time Memory Report at c_bands before calling an iterative solver
           133 MiB given to the printing process from OS
             0 MiB allocation reported by mallinfo(arena+hblkhd)
           439 MiB available memory on the node where the printing process lives
------------------
     ethr =  2.70E-08,  avg # of iterations =  2.0

     negative rho (up, down):  3.172E-01 0.000E+00

     total cpu time spent up to now is       20.3 secs

     total energy              =      -2.24901507 Ry
     estimated scf accuracy    <       0.00000089 Ry

     iteration # 25     ecut=    10.00 Ry     beta= 0.70
     Davidson diagonalization with overlap

---- Real-time Memory Report at c_bands before calling an iterative solver
           133 MiB given to the printing process from OS
             0 MiB allocation reported by mallinfo(arena+hblkhd)
           439 MiB available memory on the node where the printing process lives
------------------
     ethr =  2.70E-08,  avg # of iterations =  3.0

     negative rho (up, down):  3.172E-01 0.000E+00

     total cpu time spent up to now is       20.5 secs

     total energy              =      -2.24899508 Ry
     estimated scf accuracy    <       0.00000026 Ry

     iteration # 26     ecut=    10.00 Ry     beta= 0.70
     Davidson diagonalization with overlap

---- Real-time Memory Report at c_bands before calling an iterative solver
           133 MiB given to the printing process from OS
             0 MiB allocation reported by mallinfo(arena+hblkhd)
           439 MiB available memory on the node where the printing process lives
------------------
     ethr =  1.31E-08,  avg # of iterations =  3.0

     negative rho (up, down):  3.173E-01 0.000E+00

     total cpu time spent up to now is       20.8 secs

     total energy              =      -2.24899397 Ry
     estimated scf accuracy    <       0.00000063 Ry

     iteration # 27     ecut=    10.00 Ry     beta= 0.70
     Davidson diagonalization with overlap

---- Real-time Memory Report at c_bands before calling an iterative solver
           133 MiB given to the printing process from OS
             0 MiB allocation reported by mallinfo(arena+hblkhd)
           439 MiB available memory on the node where the printing process lives
------------------
     ethr =  1.31E-08,  avg # of iterations =  3.0

     negative rho (up, down):  3.173E-01 0.000E+00

     total cpu time spent up to now is       21.0 secs

     total energy              =      -2.24902016 Ry
     estimated scf accuracy    <       0.00000130 Ry

     iteration # 28     ecut=    10.00 Ry     beta= 0.70
     Davidson diagonalization with overlap

---- Real-time Memory Report at c_bands before calling an iterative solver
           133 MiB given to the printing process from OS
             0 MiB allocation reported by mallinfo(arena+hblkhd)
           439 MiB available memory on the node where the printing process lives
------------------
     ethr =  1.31E-08,  avg # of iterations =  3.0

     negative rho (up, down):  3.173E-01 0.000E+00

     total cpu time spent up to now is       21.2 secs

     total energy              =      -2.24899767 Ry
     estimated scf accuracy    <       0.00000133 Ry

     iteration # 29     ecut=    10.00 Ry     beta= 0.70
     Davidson diagonalization with overlap

---- Real-time Memory Report at c_bands before calling an iterative solver
           133 MiB given to the printing process from OS
             0 MiB allocation reported by mallinfo(arena+hblkhd)
           439 MiB available memory on the node where the printing process lives
------------------
     ethr =  1.31E-08,  avg # of iterations =  3.0

     negative rho (up, down):  3.173E-01 0.000E+00

     total cpu time spent up to now is       21.4 secs

     total energy              =      -2.24900507 Ry
     estimated scf accuracy    <       0.00000122 Ry

     iteration # 30     ecut=    10.00 Ry     beta= 0.70
     Davidson diagonalization with overlap

---- Real-time Memory Report at c_bands before calling an iterative solver
           133 MiB given to the printing process from OS
             0 MiB allocation reported by mallinfo(arena+hblkhd)
           439 MiB available memory on the node where the printing process lives
------------------
     ethr =  1.31E-08,  avg # of iterations =  2.0

     negative rho (up, down):  3.172E-01 0.000E+00

     total cpu time spent up to now is       21.7 secs

     total energy              =      -2.24897571 Ry
     estimated scf accuracy    <       0.00000082 Ry

     iteration # 31     ecut=    10.00 Ry     beta= 0.70
     Davidson diagonalization with overlap

---- Real-time Memory Report at c_bands before calling an iterative solver
           133 MiB given to the printing process from OS
             0 MiB allocation reported by mallinfo(arena+hblkhd)
           439 MiB available memory on the node where the printing process lives
------------------
     ethr =  1.31E-08,  avg # of iterations =  3.0

     negative rho (up, down):  3.172E-01 0.000E+00

     total cpu time spent up to now is       21.9 secs

     total energy              =      -2.24897874 Ry
     estimated scf accuracy    <       0.00000111 Ry

     iteration # 32     ecut=    10.00 Ry     beta= 0.70
     Davidson diagonalization with overlap

---- Real-time Memory Report at c_bands before calling an iterative solver
           133 MiB given to the printing process from OS
             0 MiB allocation reported by mallinfo(arena+hblkhd)
           439 MiB available memory on the node where the printing process lives
------------------
     ethr =  1.31E-08,  avg # of iterations =  3.0

     negative rho (up, down):  3.172E-01 0.000E+00

     total cpu time spent up to now is       22.1 secs

     total energy              =      -2.24902778 Ry
     estimated scf accuracy    <       0.00000048 Ry

     iteration # 33     ecut=    10.00 Ry     beta= 0.70
     Davidson diagonalization with overlap

---- Real-time Memory Report at c_bands before calling an iterative solver
           133 MiB given to the printing process from OS
             0 MiB allocation reported by mallinfo(arena+hblkhd)
           439 MiB available memory on the node where the printing process lives
------------------
     ethr =  1.31E-08,  avg # of iterations =  4.0

     negative rho (up, down):  3.171E-01 0.000E+00

     total cpu time spent up to now is       22.3 secs

     total energy              =      -2.24909840 Ry
     estimated scf accuracy    <       0.00000147 Ry

     iteration # 34     ecut=    10.00 Ry     beta= 0.70
     Davidson diagonalization with overlap

---- Real-time Memory Report at c_bands before calling an iterative solver
           133 MiB given to the printing process from OS
             0 MiB allocation reported by mallinfo(arena+hblkhd)
           439 MiB available memory on the node where the printing process lives
------------------
     ethr =  1.31E-08,  avg # of iterations =  4.0

     negative rho (up, down):  3.171E-01 0.000E+00

     total cpu time spent up to now is       22.6 secs

     total energy              =      -2.24908935 Ry
     estimated scf accuracy    <       0.00000023 Ry

     iteration # 35     ecut=    10.00 Ry     beta= 0.70
     Davidson diagonalization with overlap

---- Real-time Memory Report at c_bands before calling an iterative solver
           133 MiB given to the printing process from OS
             0 MiB allocation reported by mallinfo(arena+hblkhd)
[...]
------------------
     ethr =  2.51E-09,  avg # of iterations =  4.0

     negative rho (up, down):  3.231E-01 0.000E+00

     total cpu time spent up to now is       76.0 secs

     total energy              =      -2.24827046 Ry
     estimated scf accuracy    <       0.00000028 Ry

     iteration # 77     ecut=    10.00 Ry     beta= 0.70
     Davidson diagonalization with overlap

---- Real-time Memory Report at c_bands before calling an iterative solver
           133 MiB given to the printing process from OS
             0 MiB allocation reported by mallinfo(arena+hblkhd)
           437 MiB available memory on the node where the printing process lives
------------------
     ethr =  2.51E-09,  avg # of iterations =  4.0

     negative rho (up, down):  3.231E-01 0.000E+00

     total cpu time spent up to now is       76.2 secs

     total energy              =      -2.24831889 Ry
     estimated scf accuracy    <       0.00000060 Ry

     iteration # 78     ecut=    10.00 Ry     beta= 0.70
     Davidson diagonalization with overlap

---- Real-time Memory Report at c_bands before calling an iterative solver
           133 MiB given to the printing process from OS
             0 MiB allocation reported by mallinfo(arena+hblkhd)
           437 MiB available memory on the node where the printing process lives
------------------
     ethr =  2.51E-09,  avg # of iterations =  5.0

     negative rho (up, down):  3.229E-01 0.000E+00

     total cpu time spent up to now is       76.4 secs

     total energy              =      -2.24821481 Ry
     estimated scf accuracy    <       0.00002319 Ry

     iteration # 79     ecut=    10.00 Ry     beta= 0.70
     Davidson diagonalization with overlap

---- Real-time Memory Report at c_bands before calling an iterative solver
           133 MiB given to the printing process from OS
             0 MiB allocation reported by mallinfo(arena+hblkhd)
           437 MiB available memory on the node where the printing process lives
------------------
     ethr =  2.51E-09,  avg # of iterations =  5.0

     negative rho (up, down):  3.229E-01 0.000E+00

     total cpu time spent up to now is       76.7 secs

     total energy              =      -2.24840516 Ry
     estimated scf accuracy    <       0.00000044 Ry

     iteration # 80     ecut=    10.00 Ry     beta= 0.70
     Davidson diagonalization with overlap

---- Real-time Memory Report at c_bands before calling an iterative solver
           133 MiB given to the printing process from OS
             0 MiB allocation reported by mallinfo(arena+hblkhd)
           437 MiB available memory on the node where the printing process lives
------------------
     ethr =  2.51E-09,  avg # of iterations =  4.0

     negative rho (up, down):  3.229E-01 0.000E+00

     total cpu time spent up to now is       76.9 secs

     total energy              =      -2.24840833 Ry
     estimated scf accuracy    <       0.00000020 Ry

     iteration # 81     ecut=    10.00 Ry     beta= 0.70
     Davidson diagonalization with overlap

---- Real-time Memory Report at c_bands before calling an iterative solver
           133 MiB given to the printing process from OS
             0 MiB allocation reported by mallinfo(arena+hblkhd)
           437 MiB available memory on the node where the printing process lives
------------------
     ethr =  2.51E-09,  avg # of iterations =  4.0

     negative rho (up, down):  3.229E-01 0.000E+00

     total cpu time spent up to now is       77.1 secs

     total energy              =      -2.24836221 Ry
     estimated scf accuracy    <       0.00000142 Ry

     iteration # 82     ecut=    10.00 Ry     beta= 0.70
     Davidson diagonalization with overlap

---- Real-time Memory Report at c_bands before calling an iterative solver
           133 MiB given to the printing process from OS
             0 MiB allocation reported by mallinfo(arena+hblkhd)
           437 MiB available memory on the node where the printing process lives
------------------
     ethr =  2.51E-09,  avg # of iterations =  4.0

     negative rho (up, down):  3.230E-01 0.000E+00

     total cpu time spent up to now is       77.4 secs

     total energy              =      -2.24836382 Ry
     estimated scf accuracy    <       0.00000070 Ry

     iteration # 83     ecut=    10.00 Ry     beta= 0.70
     Davidson diagonalization with overlap

---- Real-time Memory Report at c_bands before calling an iterative solver
           133 MiB given to the printing process from OS
             0 MiB allocation reported by mallinfo(arena+hblkhd)
           437 MiB available memory on the node where the printing process lives
------------------
     ethr =  2.51E-09,  avg # of iterations =  4.0

     negative rho (up, down):  3.230E-01 0.000E+00

     total cpu time spent up to now is       77.6 secs

     total energy              =      -2.24836554 Ry
     estimated scf accuracy    <       0.00000276 Ry

     iteration # 84     ecut=    10.00 Ry     beta= 0.70
     Davidson diagonalization with overlap

---- Real-time Memory Report at c_bands before calling an iterative solver
           133 MiB given to the printing process from OS
             0 MiB allocation reported by mallinfo(arena+hblkhd)
           437 MiB available memory on the node where the printing process lives
------------------
     ethr =  2.51E-09,  avg # of iterations =  4.0

     negative rho (up, down):  3.230E-01 0.000E+00

     total cpu time spent up to now is       77.8 secs

     total energy              =      -2.24828947 Ry
     estimated scf accuracy    <       0.00000106 Ry

     iteration # 85     ecut=    10.00 Ry     beta= 0.70
     Davidson diagonalization with overlap

---- Real-time Memory Report at c_bands before calling an iterative solver
           133 MiB given to the printing process from OS
             0 MiB allocation reported by mallinfo(arena+hblkhd)
           437 MiB available memory on the node where the printing process lives
------------------
     ethr =  2.51E-09,  avg # of iterations =  5.0

     negative rho (up, down):  3.230E-01 0.000E+00

     total cpu time spent up to now is       78.1 secs

     total energy              =      -2.24831597 Ry
     estimated scf accuracy    <       0.00000032 Ry

     iteration # 86     ecut=    10.00 Ry     beta= 0.70
     Davidson diagonalization with overlap

---- Real-time Memory Report at c_bands before calling an iterative solver
           133 MiB given to the printing process from OS
             0 MiB allocation reported by mallinfo(arena+hblkhd)
           437 MiB available memory on the node where the printing process lives
------------------
     ethr =  2.51E-09,  avg # of iterations =  4.0

     negative rho (up, down):  3.231E-01 0.000E+00

     total cpu time spent up to now is       78.3 secs

     total energy              =      -2.24830040 Ry
     estimated scf accuracy    <       0.00000219 Ry

     iteration # 87     ecut=    10.00 Ry     beta= 0.70
     Davidson diagonalization with overlap

---- Real-time Memory Report at c_bands before calling an iterative solver
           133 MiB given to the printing process from OS
             0 MiB allocation reported by mallinfo(arena+hblkhd)
           437 MiB available memory on the node where the printing process lives
------------------
     ethr =  2.51E-09,  avg # of iterations =  4.0

     negative rho (up, down):  3.231E-01 0.000E+00

     total cpu time spent up to now is       78.5 secs

     total energy              =      -2.24832310 Ry
     estimated scf accuracy    <       0.00000095 Ry

     iteration # 88     ecut=    10.00 Ry     beta= 0.70
     Davidson diagonalization with overlap

---- Real-time Memory Report at c_bands before calling an iterative solver
           133 MiB given to the printing process from OS
             0 MiB allocation reported by mallinfo(arena+hblkhd)
           437 MiB available memory on the node where the printing process lives
------------------
     ethr =  2.51E-09,  avg # of iterations =  4.0

     negative rho (up, down):  3.231E-01 0.000E+00

     total cpu time spent up to now is       78.7 secs

     total energy              =      -2.24834455 Ry
     estimated scf accuracy    <       0.00000058 Ry

     iteration # 89     ecut=    10.00 Ry     beta= 0.70
     Davidson diagonalization with overlap

---- Real-time Memory Report at c_bands before calling an iterative solver
           133 MiB given to the printing process from OS
             0 MiB allocation reported by mallinfo(arena+hblkhd)
           437 MiB available memory on the node where the printing process lives
------------------
     ethr =  2.51E-09,  avg # of iterations =  5.0

     negative rho (up, down):  3.231E-01 0.000E+00

     total cpu time spent up to now is       79.0 secs

     total energy              =      -2.24830175 Ry
     estimated scf accuracy    <       0.00000320 Ry

     iteration # 90     ecut=    10.00 Ry     beta= 0.70
     Davidson diagonalization with overlap

---- Real-time Memory Report at c_bands before calling an iterative solver
           133 MiB given to the printing process from OS
             0 MiB allocation reported by mallinfo(arena+hblkhd)
           437 MiB available memory on the node where the printing process lives
------------------
     ethr =  2.51E-09,  avg # of iterations =  4.0

     negative rho (up, down):  3.230E-01 0.000E+00

     total cpu time spent up to now is       79.2 secs

     total energy              =      -2.24834199 Ry
     estimated scf accuracy    <       0.00000089 Ry

     iteration # 91     ecut=    10.00 Ry     beta= 0.70
     Davidson diagonalization with overlap

---- Real-time Memory Report at c_bands before calling an iterative solver
           133 MiB given to the printing process from OS
             0 MiB allocation reported by mallinfo(arena+hblkhd)
           437 MiB available memory on the node where the printing process lives
------------------
     ethr =  2.51E-09,  avg # of iterations =  4.0

     negative rho (up, down):  3.230E-01 0.000E+00

     total cpu time spent up to now is       79.4 secs

     total energy              =      -2.24828052 Ry
     estimated scf accuracy    <       0.00000172 Ry

     iteration # 92     ecut=    10.00 Ry     beta= 0.70
     Davidson diagonalization with overlap

---- Real-time Memory Report at c_bands before calling an iterative solver
           133 MiB given to the printing process from OS
             0 MiB allocation reported by mallinfo(arena+hblkhd)
           437 MiB available memory on the node where the printing process lives
------------------
     ethr =  2.51E-09,  avg # of iterations =  5.0

     negative rho (up, down):  3.230E-01 0.000E+00

     total cpu time spent up to now is       79.7 secs

     total energy              =      -2.24833203 Ry
     estimated scf accuracy    <       0.00000734 Ry

     iteration # 93     ecut=    10.00 Ry     beta= 0.70
     Davidson diagonalization with overlap

---- Real-time Memory Report at c_bands before calling an iterative solver
           133 MiB given to the printing process from OS
             0 MiB allocation reported by mallinfo(arena+hblkhd)
           437 MiB available memory on the node where the printing process lives
------------------
     ethr =  2.51E-09,  avg # of iterations =  2.0

     negative rho (up, down):  3.230E-01 0.000E+00

     total cpu time spent up to now is       79.9 secs

     total energy              =      -2.24834310 Ry
     estimated scf accuracy    <       0.00000730 Ry

     iteration # 94     ecut=    10.00 Ry     beta= 0.70
     Davidson diagonalization with overlap

---- Real-time Memory Report at c_bands before calling an iterative solver
           133 MiB given to the printing process from OS
             0 MiB allocation reported by mallinfo(arena+hblkhd)
           437 MiB available memory on the node where the printing process lives
------------------
     ethr =  2.51E-09,  avg # of iterations =  5.0

     negative rho (up, down):  3.230E-01 0.000E+00

     total cpu time spent up to now is       80.1 secs

     total energy              =      -2.24833664 Ry
     estimated scf accuracy    <       0.00000575 Ry

     iteration # 95     ecut=    10.00 Ry     beta= 0.70
     Davidson diagonalization with overlap

---- Real-time Memory Report at c_bands before calling an iterative solver
           133 MiB given to the printing process from OS
             0 MiB allocation reported by mallinfo(arena+hblkhd)
           437 MiB available memory on the node where the printing process lives
------------------
     ethr =  2.51E-09,  avg # of iterations =  5.0

     negative rho (up, down):  3.230E-01 0.000E+00

     total cpu time spent up to now is       80.4 secs

     total energy              =      -2.24835214 Ry
     estimated scf accuracy    <       0.00000055 Ry

     iteration # 96     ecut=    10.00 Ry     beta= 0.70
     Davidson diagonalization with overlap

---- Real-time Memory Report at c_bands before calling an iterative solver
           133 MiB given to the printing process from OS
             0 MiB allocation reported by mallinfo(arena+hblkhd)
           437 MiB available memory on the node where the printing process lives
------------------
     ethr =  2.51E-09,  avg # of iterations =  5.0

     negative rho (up, down):  3.230E-01 0.000E+00

     total cpu time spent up to now is       80.6 secs

     total energy              =      -2.24831211 Ry
     estimated scf accuracy    <       0.00000217 Ry

     iteration # 97     ecut=    10.00 Ry     beta= 0.70
     Davidson diagonalization with overlap

---- Real-time Memory Report at c_bands before calling an iterative solver
           133 MiB given to the printing process from OS
             0 MiB allocation reported by mallinfo(arena+hblkhd)
           437 MiB available memory on the node where the printing process lives
------------------
     ethr =  2.51E-09,  avg # of iterations =  5.0

     negative rho (up, down):  3.230E-01 0.000E+00

     total cpu time spent up to now is       80.9 secs

     total energy              =      -2.24832419 Ry
     estimated scf accuracy    <       0.00000013 Ry

     iteration # 98     ecut=    10.00 Ry     beta= 0.70
     Davidson diagonalization with overlap

---- Real-time Memory Report at c_bands before calling an iterative solver
           133 MiB given to the printing process from OS
             0 MiB allocation reported by mallinfo(arena+hblkhd)
           437 MiB available memory on the node where the printing process lives
------------------
     ethr =  2.51E-09,  avg # of iterations =  4.0

     negative rho (up, down):  3.230E-01 0.000E+00

     total cpu time spent up to now is       81.1 secs

     total energy              =      -2.24832601 Ry
     estimated scf accuracy    <       0.00000033 Ry

     iteration # 99     ecut=    10.00 Ry     beta= 0.70
     Davidson diagonalization with overlap

---- Real-time Memory Report at c_bands before calling an iterative solver
           133 MiB given to the printing process from OS
             0 MiB allocation reported by mallinfo(arena+hblkhd)
           437 MiB available memory on the node where the printing process lives
------------------
     ethr =  2.51E-09,  avg # of iterations =  3.0

     negative rho (up, down):  3.230E-01 0.000E+00

     total cpu time spent up to now is       81.3 secs

     total energy              =      -2.24834948 Ry
     estimated scf accuracy    <       0.00000041 Ry

     iteration #100     ecut=    10.00 Ry     beta= 0.70
     Davidson diagonalization with overlap

---- Real-time Memory Report at c_bands before calling an iterative solver
           133 MiB given to the printing process from OS
             0 MiB allocation reported by mallinfo(arena+hblkhd)
           437 MiB available memory on the node where the printing process lives
------------------
     ethr =  2.51E-09,  avg # of iterations =  5.0

     negative rho (up, down):  3.230E-01 0.000E+00

     total cpu time spent up to now is       81.6 secs

     total energy              =      -2.24835882 Ry
     estimated scf accuracy    <       0.00000519 Ry

     End of self-consistent calculation

     convergence NOT achieved after 100 iterations: stopping

     Writing config to output data dir ./.save/
     Message from routine punch:
     wavefunctions written to file

     init_run     :      0.21s CPU      0.23s WALL (       1 calls)
     electrons    :     79.99s CPU     80.23s WALL (       6 calls)
     update_pot   :      0.73s CPU      0.76s WALL (       5 calls)
     forces       :      0.24s CPU      0.24s WALL (       5 calls)

     Called by init_run:
     wfcinit      :      0.02s CPU      0.02s WALL (       1 calls)
     wfcinit:atom :      0.00s CPU      0.00s WALL (       1 calls)
     wfcinit:wfcr :      0.01s CPU      0.01s WALL (       1 calls)
     potinit      :      0.14s CPU      0.14s WALL (       1 calls)
     hinit0       :      0.01s CPU      0.01s WALL (       1 calls)

     Called by electrons:
     c_bands      :     17.20s CPU     17.24s WALL (     349 calls)
     sum_band     :      8.58s CPU      8.62s WALL (     349 calls)
     v_of_rho     :     42.53s CPU     42.67s WALL (     355 calls)
     v_h          :      2.27s CPU      2.29s WALL (     355 calls)
     v_xc         :     40.26s CPU     40.38s WALL (     355 calls)
     newd         :      2.84s CPU      2.85s WALL (     355 calls)
     mix_rho      :      8.74s CPU      8.78s WALL (     349 calls)

     Called by c_bands:
     init_us_2    :      0.26s CPU      0.26s WALL (     699 calls)
     init_us_2:cp :      0.26s CPU      0.26s WALL (     699 calls)
     cegterg      :     17.01s CPU     17.05s WALL (     349 calls)

     Called by sum_band:
     sum_band:wei :      0.00s CPU      0.00s WALL (     349 calls)
     sum_band:loo :      2.38s CPU      2.38s WALL (     349 calls)
     sum_band:buf :      0.00s CPU      0.00s WALL (     349 calls)
     sum_band:ini :      0.14s CPU      0.14s WALL (     349 calls)
     sum_band:cal :      0.03s CPU      0.03s WALL (     349 calls)
     sum_band:bec :      0.00s CPU      0.00s WALL (     349 calls)
     addusdens    :      0.78s CPU      0.79s WALL (     349 calls)
     addusd:skk   :      0.24s CPU      0.24s WALL (     349 calls)
     addusd:dgemm :      0.17s CPU      0.17s WALL (     349 calls)
     addusd:qvan2 :      0.19s CPU      0.19s WALL (     349 calls)

     Called by *egterg:
     cdiaghg      :      0.03s CPU      0.03s WALL (    1634 calls)
     cegterg:over :      0.24s CPU      0.24s WALL (    1290 calls)
     cegterg:upda :      0.19s CPU      0.19s WALL (    1290 calls)
     cegterg:last :      0.38s CPU      0.38s WALL (    1010 calls)
     h_psi        :     15.79s CPU     15.82s WALL (    1640 calls)
     s_psi        :      0.09s CPU      0.09s WALL (    1640 calls)
     g_psi        :      0.09s CPU      0.09s WALL (    1290 calls)

     Called by h_psi:
     h_psi:calbec :      0.12s CPU      0.12s WALL (    1640 calls)
     vloc_psi     :     15.51s CPU     15.54s WALL (    1640 calls)
     add_vuspsi   :      0.10s CPU      0.10s WALL (    1640 calls)

     General routines
     calbec       :      0.15s CPU      0.15s WALL (    2009 calls)
     fft          :     19.94s CPU     19.97s WALL (    3920 calls)
     ffts         :      1.78s CPU      1.78s WALL (     349 calls)
     fftw         :     16.05s CPU     16.09s WALL (    5698 calls)
     davcio       :      0.00s CPU      0.01s WALL (      19 calls)


     PWSCF        :   1m21.31s CPU   1m21.61s WALL


   This run was terminated on:   2:59:51  28Feb2022            

=------------------------------------------------------------------------------=
   JOB DONE.
=------------------------------------------------------------------------------=
