
     Program PWSCF v.7.0 starts on 28Feb2022 at 22:14:13 

     This program is part of the open-source Quantum ESPRESSO suite
     for quantum simulation of materials; please cite
         "P. Giannozzi et al., J. Phys.:Condens. Matter 21 395502 (2009);
         "P. Giannozzi et al., J. Phys.:Condens. Matter 29 465901 (2017);
         "P. Giannozzi et al., J. Chem. Phys. 152 154105 (2020);
          URL http://www.quantum-espresso.org", 
     in publications or presentations arising from this work. More details at
     http://www.quantum-espresso.org/quote

     Serial version
     1309 MiB available memory on the printing compute node when the environment starts

     Waiting for input...
     Reading input from standard input

     Current dimensions of program PWSCF are:
     Max number of different atomic species (ntypx) = 10
     Max number of k-points (npk) =  40000
     Max angular momentum in pseudopotentials (lmaxx) =  4

    ============================================================
    |  pseudopotential report for atomic species:  1           |
    |        pseudo potential version   7   3   2              |
    ------------------------------------------------------------
    |  hydrogen            PBE                  exchange-corr  |
    |  z =   1.    zv( 1) =   1.    exfact =   5.00000         |
    |  ifpcor =  0           atomic energy =  -0.91772 Ry      |
    |  index    orbital      occupation    energy              |
    |    1        100           1.00       -0.48               |
    |  rinner =  0.5000                                        |
    |    new generation scheme:                                |
    |    nbeta =  1     kkbeta =  271     rcloc =    0.6000    |
    |    ibeta    l     epsilon   rcut                         |
    |      1       0      -0.48   0.80                         |
    ============================================================

     IMPORTANT: XC functional enforced from input :
     Exchange-correlation= BLYP
                           (   1   3   1   3   0   0   0)
     Any further DFT definition will be discarded
     Please, verify this is what you really want


     G-vector sticks info
     --------------------
     sticks:   dense  smooth     PW     G-vecs:    dense   smooth      PW
     Sum        1433    1433    421                40651    40651    6451

     Using Slab Decomposition



     bravais-lattice index     =            1
     lattice parameter (alat)  =      30.0000  a.u.
     unit-cell volume          =   27000.0000 (a.u.)^3
     number of atoms/cell      =            2
     number of atomic types    =            1
     number of electrons       =         2.00
     number of Kohn-Sham states=            2
     kinetic-energy cutoff     =       5.0000  Ry
     charge density cutoff     =      20.0000  Ry
     scf convergence threshold =      1.0E-08
     mixing beta               =       0.7000
     number of iterations used =            8  plain     mixing
     Exchange-correlation= BLYP
                           (   1   3   1   3   0   0   0)

     celldm(1)=  30.000000  celldm(2)=   0.000000  celldm(3)=   0.000000
     celldm(4)=   0.000000  celldm(5)=   0.000000  celldm(6)=   0.000000

     crystal axes: (cart. coord. in units of alat)
               a(1) = (   1.000000   0.000000   0.000000 )  
               a(2) = (   0.000000   1.000000   0.000000 )  
               a(3) = (   0.000000   0.000000   1.000000 )  

     reciprocal axes: (cart. coord. in units 2 pi/alat)
               b(1) = (  1.000000  0.000000  0.000000 )  
               b(2) = (  0.000000  1.000000  0.000000 )  
               b(3) = (  0.000000  0.000000  1.000000 )  


     PseudoPot. # 1 for hy read from file:
     /root/q-e/pseudo/H_US.van
     MD5 check sum: a9a9bfe98ff56cf4de197d71fc46bb44
     Pseudo is Ultrasoft, Zval =  1.0
     Generated by Vanderbilt code, v. 7.3.2
     Using radial grid of  399 points,  1 beta functions with: 
                l(1) =   0
     Q(r) pseudized with  8 coefficients,  rinner =    0.500

     atomic species   valence    mass     pseudopotential
        H              1.00     1.00784     hy( 1.00)

      8 Sym. Ops. (no inversion) found


                                    s                        frac. trans.

      isym =  1     identity                                     

 cryst.   s( 1) = (     1          0          0      )
                  (     0          1          0      )
                  (     0          0          1      )

 cart.    s( 1) = (  1.0000000  0.0000000  0.0000000 )
                  (  0.0000000  1.0000000  0.0000000 )
                  (  0.0000000  0.0000000  1.0000000 )


      isym =  2     180 deg rotation - cart. axis [1,0,0]        

 cryst.   s( 2) = (     1          0          0      )
                  (     0         -1          0      )
                  (     0          0         -1      )

 cart.    s( 2) = (  1.0000000  0.0000000  0.0000000 )
                  (  0.0000000 -1.0000000  0.0000000 )
                  (  0.0000000  0.0000000 -1.0000000 )


      isym =  3      90 deg rotation - cart. axis [-1,0,0]       

 cryst.   s( 3) = (     1          0          0      )
                  (     0          0         -1      )
                  (     0          1          0      )

 cart.    s( 3) = (  1.0000000  0.0000000  0.0000000 )
                  (  0.0000000  0.0000000  1.0000000 )
                  (  0.0000000 -1.0000000  0.0000000 )


      isym =  4      90 deg rotation - cart. axis [1,0,0]        

 cryst.   s( 4) = (     1          0          0      )
                  (     0          0          1      )
                  (     0         -1          0      )

 cart.    s( 4) = (  1.0000000  0.0000000  0.0000000 )
                  (  0.0000000  0.0000000 -1.0000000 )
                  (  0.0000000  1.0000000  0.0000000 )


      isym =  5     inv. 180 deg rotation - cart. axis [0,0,1]   

 cryst.   s( 5) = (     1          0          0      )
                  (     0          1          0      )
                  (     0          0         -1      )

 cart.    s( 5) = (  1.0000000  0.0000000  0.0000000 )
                  (  0.0000000  1.0000000  0.0000000 )
                  (  0.0000000  0.0000000 -1.0000000 )


      isym =  6     inv. 180 deg rotation - cart. axis [0,1,0]   

 cryst.   s( 6) = (     1          0          0      )
                  (     0         -1          0      )
                  (     0          0          1      )

 cart.    s( 6) = (  1.0000000  0.0000000  0.0000000 )
                  (  0.0000000 -1.0000000  0.0000000 )
                  (  0.0000000  0.0000000  1.0000000 )


      isym =  7     inv. 180 deg rotation - cart. axis [0,1,1]   

 cryst.   s( 7) = (     1          0          0      )
                  (     0          0         -1      )
                  (     0         -1          0      )

 cart.    s( 7) = (  1.0000000  0.0000000  0.0000000 )
                  (  0.0000000  0.0000000 -1.0000000 )
                  (  0.0000000 -1.0000000  0.0000000 )


      isym =  8     inv. 180 deg rotation - cart. axis [0,1,-1]  

 cryst.   s( 8) = (     1          0          0      )
                  (     0          0          1      )
                  (     0          1          0      )

 cart.    s( 8) = (  1.0000000  0.0000000  0.0000000 )
                  (  0.0000000  0.0000000  1.0000000 )
                  (  0.0000000  1.0000000  0.0000000 )


     point group C_4v (4mm) 
     there are  5 classes
     the character table:

       E     2C4   C2    2s_v  2s_d 
A_1    1.00  1.00  1.00  1.00  1.00
A_2    1.00  1.00  1.00 -1.00 -1.00
B_1    1.00 -1.00  1.00  1.00 -1.00
B_2    1.00 -1.00  1.00 -1.00  1.00
E      2.00  0.00 -2.00  0.00  0.00

     the symmetry operations in each class and the name of the first element:

     E        1
          identity                                               
     2C4      3    4
           90 deg rotation - cart. axis [-1,0,0]                 
     C2       2
          180 deg rotation - cart. axis [1,0,0]                  
     2s_v     5    6
          inv. 180 deg rotation - cart. axis [0,0,1]             
     2s_d     7    8
          inv. 180 deg rotation - cart. axis [0,1,1]             

   Cartesian axes

     site n.     atom                  positions (alat units)
         1           H   tau(   1) = (   0.0000000   0.0000000   0.0000000  )
         2           H   tau(   2) = (   0.0377945   0.0000000   0.0000000  )

   Crystallographic axes

     site n.     atom                  positions (cryst. coord.)
         1           H   tau(   1) = (  0.0000000  0.0000000  0.0000000  )
         2           H   tau(   2) = (  0.0377945  0.0000000  0.0000000  )

     number of k points=     1
                       cart. coord. in units 2pi/alat
        k(    1) = (  -0.5000000  -0.5000000  -0.5000000), wk =   2.0000000

                       cryst. coord.
        k(    1) = (  -0.5000000  -0.5000000  -0.5000000), wk =   2.0000000

     Dense  grid:    40651 G-vectors     FFT dimensions: (  45,  45,  45)

     Dynamical RAM for                 wfc:       0.16 MB

     Dynamical RAM for     wfc (w. buffer):       0.16 MB

     Dynamical RAM for           str. fact:       0.62 MB

     Dynamical RAM for           local pot:       0.00 MB

     Dynamical RAM for          nlocal pot:       0.16 MB

     Dynamical RAM for                qrad:       0.00 MB

     Dynamical RAM for          rho,v,vnew:       3.95 MB

     Dynamical RAM for               rhoin:       1.32 MB

     Dynamical RAM for            rho*nmix:       9.92 MB

     Dynamical RAM for           G-vectors:       2.64 MB

     Dynamical RAM for          h,s,v(r/c):       0.00 MB

     Dynamical RAM for          <psi|beta>:       0.00 MB

     Dynamical RAM for                 psi:       0.31 MB

     Dynamical RAM for                hpsi:       0.31 MB

     Dynamical RAM for                spsi:       0.31 MB

     Dynamical RAM for      wfcinit/wfcrot:       0.31 MB

     Dynamical RAM for           addusdens:       3.72 MB

     Estimated static dynamical RAM per process >      13.55 MB

     Estimated max dynamical RAM per process >      27.20 MB

     Initial potential from superposition of free atoms

     starting charge       2.0000, renormalised to       2.0000

     negative rho (up, down):  4.608E-01 0.000E+00
     Starting wfcs are    2 randomized atomic wfcs

     total cpu time spent up to now is        0.1 secs

     Self-consistent Calculation

     iteration #  1     ecut=     5.00 Ry     beta= 0.70
     Davidson diagonalization with overlap

---- Real-time Memory Report at c_bands before calling an iterative solver
            41 MiB given to the printing process from OS
             0 MiB allocation reported by mallinfo(arena+hblkhd)
          1288 MiB available memory on the node where the printing process lives
------------------
     ethr =  1.00E-02,  avg # of iterations =  7.0

     negative rho (up, down):  4.209E-01 0.000E+00

     total cpu time spent up to now is        0.2 secs

     total energy              =      -1.89834531 Ry
     estimated scf accuracy    <       0.04118411 Ry

     iteration #  2     ecut=     5.00 Ry     beta= 0.70
     Davidson diagonalization with overlap

---- Real-time Memory Report at c_bands before calling an iterative solver
            47 MiB given to the printing process from OS
             0 MiB allocation reported by mallinfo(arena+hblkhd)
          1275 MiB available memory on the node where the printing process lives
------------------
     ethr =  2.06E-03,  avg # of iterations =  1.0

     negative rho (up, down):  4.016E-01 0.000E+00

     total cpu time spent up to now is        0.2 secs

     total energy              =      -1.90705975 Ry
     estimated scf accuracy    <       0.00193033 Ry

     iteration #  3     ecut=     5.00 Ry     beta= 0.70
     Davidson diagonalization with overlap

---- Real-time Memory Report at c_bands before calling an iterative solver
            48 MiB given to the printing process from OS
             0 MiB allocation reported by mallinfo(arena+hblkhd)
          1273 MiB available memory on the node where the printing process lives
------------------
     ethr =  9.65E-05,  avg # of iterations =  7.0

     negative rho (up, down):  3.928E-01 0.000E+00

     total cpu time spent up to now is        0.3 secs

     total energy              =      -1.91007706 Ry
     estimated scf accuracy    <       0.00003911 Ry

     iteration #  4     ecut=     5.00 Ry     beta= 0.70
     Davidson diagonalization with overlap

---- Real-time Memory Report at c_bands before calling an iterative solver
            50 MiB given to the printing process from OS
             0 MiB allocation reported by mallinfo(arena+hblkhd)
          1272 MiB available memory on the node where the printing process lives
------------------
     ethr =  1.96E-06,  avg # of iterations =  5.0

     negative rho (up, down):  3.927E-01 0.000E+00

     total cpu time spent up to now is        0.4 secs

     total energy              =      -1.91052185 Ry
     estimated scf accuracy    <       0.00000835 Ry

     iteration #  5     ecut=     5.00 Ry     beta= 0.70
     Davidson diagonalization with overlap

---- Real-time Memory Report at c_bands before calling an iterative solver
            51 MiB given to the printing process from OS
             0 MiB allocation reported by mallinfo(arena+hblkhd)
          1271 MiB available memory on the node where the printing process lives
------------------
     ethr =  4.17E-07,  avg # of iterations =  3.0

     negative rho (up, down):  3.936E-01 0.000E+00

     total cpu time spent up to now is        0.5 secs

     total energy              =      -1.91034704 Ry
     estimated scf accuracy    <       0.00000817 Ry

     iteration #  6     ecut=     5.00 Ry     beta= 0.70
     Davidson diagonalization with overlap

---- Real-time Memory Report at c_bands before calling an iterative solver
            52 MiB given to the printing process from OS
             0 MiB allocation reported by mallinfo(arena+hblkhd)
          1270 MiB available memory on the node where the printing process lives
------------------
     ethr =  4.09E-07,  avg # of iterations =  4.0

     negative rho (up, down):  3.934E-01 0.000E+00

     total cpu time spent up to now is        0.6 secs

     total energy              =      -1.91019955 Ry
     estimated scf accuracy    <       0.00004215 Ry

     iteration #  7     ecut=     5.00 Ry     beta= 0.70
     Davidson diagonalization with overlap

---- Real-time Memory Report at c_bands before calling an iterative solver
            53 MiB given to the printing process from OS
             0 MiB allocation reported by mallinfo(arena+hblkhd)
          1268 MiB available memory on the node where the printing process lives
------------------
     ethr =  4.09E-07,  avg # of iterations =  3.0

     negative rho (up, down):  3.934E-01 0.000E+00

     total cpu time spent up to now is        0.6 secs

     total energy              =      -1.91062274 Ry
     estimated scf accuracy    <       0.00000219 Ry

     iteration #  8     ecut=     5.00 Ry     beta= 0.70
     Davidson diagonalization with overlap

---- Real-time Memory Report at c_bands before calling an iterative solver
            54 MiB given to the printing process from OS
             0 MiB allocation reported by mallinfo(arena+hblkhd)
          1267 MiB available memory on the node where the printing process lives
------------------
     ethr =  1.09E-07,  avg # of iterations =  2.0

     negative rho (up, down):  3.933E-01 0.000E+00

     total cpu time spent up to now is        0.7 secs

     total energy              =      -1.91057985 Ry
     estimated scf accuracy    <       0.00000250 Ry

     iteration #  9     ecut=     5.00 Ry     beta= 0.70
     Davidson diagonalization with overlap

---- Real-time Memory Report at c_bands before calling an iterative solver
            56 MiB given to the printing process from OS
             0 MiB allocation reported by mallinfo(arena+hblkhd)
          1266 MiB available memory on the node where the printing process lives
------------------
     ethr =  1.09E-07,  avg # of iterations =  3.0

     negative rho (up, down):  3.915E-01 0.000E+00

     total cpu time spent up to now is        0.8 secs

     total energy              =      -1.91107271 Ry
     estimated scf accuracy    <       0.00000038 Ry

     iteration # 10     ecut=     5.00 Ry     beta= 0.70
     Davidson diagonalization with overlap

---- Real-time Memory Report at c_bands before calling an iterative solver
            57 MiB given to the printing process from OS
             0 MiB allocation reported by mallinfo(arena+hblkhd)
          1265 MiB available memory on the node where the printing process lives
------------------
     ethr =  1.89E-08,  avg # of iterations =  4.0

     negative rho (up, down):  3.931E-01 0.000E+00

     total cpu time spent up to now is        0.8 secs

     total energy              =      -1.91047942 Ry
     estimated scf accuracy    <       0.00002387 Ry

     iteration # 11     ecut=     5.00 Ry     beta= 0.70
     Davidson diagonalization with overlap

---- Real-time Memory Report at c_bands before calling an iterative solver
            57 MiB given to the printing process from OS
             0 MiB allocation reported by mallinfo(arena+hblkhd)
          1265 MiB available memory on the node where the printing process lives
------------------
     ethr =  1.89E-08,  avg # of iterations =  4.0

     negative rho (up, down):  3.931E-01 0.000E+00

     total cpu time spent up to now is        0.9 secs

     total energy              =      -1.91077539 Ry
     estimated scf accuracy    <       0.00000299 Ry

     iteration # 12     ecut=     5.00 Ry     beta= 0.70
     Davidson diagonalization with overlap

---- Real-time Memory Report at c_bands before calling an iterative solver
            57 MiB given to the printing process from OS
             0 MiB allocation reported by mallinfo(arena+hblkhd)
          1265 MiB available memory on the node where the printing process lives
------------------
     ethr =  1.89E-08,  avg # of iterations =  3.0

     negative rho (up, down):  3.917E-01 0.000E+00

     total cpu time spent up to now is        1.0 secs

     total energy              =      -1.91094308 Ry
     estimated scf accuracy    <       0.00000162 Ry

     iteration # 13     ecut=     5.00 Ry     beta= 0.70
     Davidson diagonalization with overlap

---- Real-time Memory Report at c_bands before calling an iterative solver
            57 MiB given to the printing process from OS
             0 MiB allocation reported by mallinfo(arena+hblkhd)
          1265 MiB available memory on the node where the printing process lives
------------------
     ethr =  1.89E-08,  avg # of iterations =  4.0

     negative rho (up, down):  3.956E-01 0.000E+00

     total cpu time spent up to now is        1.1 secs

     total energy              =      -1.90919108 Ry
     estimated scf accuracy    <       0.00001843 Ry

     iteration # 14     ecut=     5.00 Ry     beta= 0.70
     Davidson diagonalization with overlap

---- Real-time Memory Report at c_bands before calling an iterative solver
            57 MiB given to the printing process from OS
             0 MiB allocation reported by mallinfo(arena+hblkhd)
          1265 MiB available memory on the node where the printing process lives
------------------
     ethr =  1.89E-08,  avg # of iterations =  5.0

     negative rho (up, down):  3.952E-01 0.000E+00

     total cpu time spent up to now is        1.2 secs

     total energy              =      -1.91257175 Ry
     estimated scf accuracy    <       0.00008135 Ry

     iteration # 15     ecut=     5.00 Ry     beta= 0.70
     Davidson diagonalization with overlap

---- Real-time Memory Report at c_bands before calling an iterative solver
            57 MiB given to the printing process from OS
             0 MiB allocation reported by mallinfo(arena+hblkhd)
          1265 MiB available memory on the node where the printing process lives
------------------
     ethr =  1.89E-08,  avg # of iterations =  4.0

     negative rho (up, down):  3.947E-01 0.000E+00

     total cpu time spent up to now is        1.2 secs

     total energy              =      -1.91167774 Ry
     estimated scf accuracy    <       0.00019867 Ry

     iteration # 16     ecut=     5.00 Ry     beta= 0.70
     Davidson diagonalization with overlap

---- Real-time Memory Report at c_bands before calling an iterative solver
            57 MiB given to the printing process from OS
             0 MiB allocation reported by mallinfo(arena+hblkhd)
          1265 MiB available memory on the node where the printing process lives
------------------
     ethr =  1.89E-08,  avg # of iterations =  4.0

     negative rho (up, down):  3.937E-01 0.000E+00

     total cpu time spent up to now is        1.3 secs

     total energy              =      -1.90984710 Ry
     estimated scf accuracy    <       0.00009555 Ry

     iteration # 17     ecut=     5.00 Ry     beta= 0.70
     Davidson diagonalization with overlap

---- Real-time Memory Report at c_bands before calling an iterative solver
            57 MiB given to the printing process from OS
             0 MiB allocation reported by mallinfo(arena+hblkhd)
          1265 MiB available memory on the node where the printing process lives
------------------
     ethr =  1.89E-08,  avg # of iterations =  4.0

     negative rho (up, down):  3.931E-01 0.000E+00

     total cpu time spent up to now is        1.4 secs

     total energy              =      -1.91058410 Ry
     estimated scf accuracy    <       0.00000677 Ry

     iteration # 18     ecut=     5.00 Ry     beta= 0.70
     Davidson diagonalization with overlap

---- Real-time Memory Report at c_bands before calling an iterative solver
            57 MiB given to the printing process from OS
             0 MiB allocation reported by mallinfo(arena+hblkhd)
          1265 MiB available memory on the node where the printing process lives
------------------
     ethr =  1.89E-08,  avg # of iterations =  4.0

     negative rho (up, down):  3.933E-01 0.000E+00

     total cpu time spent up to now is        1.5 secs

     total energy              =      -1.91069352 Ry
     estimated scf accuracy    <       0.00000849 Ry

     iteration # 19     ecut=     5.00 Ry     beta= 0.70
     Davidson diagonalization with overlap

---- Real-time Memory Report at c_bands before calling an iterative solver
            57 MiB given to the printing process from OS
             0 MiB allocation reported by mallinfo(arena+hblkhd)
          1265 MiB available memory on the node where the printing process lives
------------------
     ethr =  1.89E-08,  avg # of iterations =  4.0

     negative rho (up, down):  3.933E-01 0.000E+00

     total cpu time spent up to now is        1.5 secs

     total energy              =      -1.91070752 Ry
     estimated scf accuracy    <       0.00000410 Ry

     iteration # 20     ecut=     5.00 Ry     beta= 0.70
     Davidson diagonalization with overlap

---- Real-time Memory Report at c_bands before calling an iterative solver
            57 MiB given to the printing process from OS
             0 MiB allocation reported by mallinfo(arena+hblkhd)
          1265 MiB available memory on the node where the printing process lives
------------------
     ethr =  1.89E-08,  avg # of iterations =  3.0

     negative rho (up, down):  3.933E-01 0.000E+00

     total cpu time spent up to now is        1.6 secs

     total energy              =      -1.91072059 Ry
     estimated scf accuracy    <       0.00000785 Ry

     iteration # 21     ecut=     5.00 Ry     beta= 0.70
     Davidson diagonalization with overlap

---- Real-time Memory Report at c_bands before calling an iterative solver
            57 MiB given to the printing process from OS
             0 MiB allocation reported by mallinfo(arena+hblkhd)
          1265 MiB available memory on the node where the printing process lives
------------------
     ethr =  1.89E-08,  avg # of iterations =  2.0

     negative rho (up, down):  3.934E-01 0.000E+00

     total cpu time spent up to now is        1.7 secs

     total energy              =      -1.91072399 Ry
     estimated scf accuracy    <       0.00000773 Ry

     iteration # 22     ecut=     5.00 Ry     beta= 0.70
     Davidson diagonalization with overlap

---- Real-time Memory Report at c_bands before calling an iterative solver
            57 MiB given to the printing process from OS
             0 MiB allocation reported by mallinfo(arena+hblkhd)
          1265 MiB available memory on the node where the printing process lives
------------------
     ethr =  1.89E-08,  avg # of iterations =  2.0

     negative rho (up, down):  3.929E-01 0.000E+00

     total cpu time spent up to now is        1.8 secs

     total energy              =      -1.91079278 Ry
     estimated scf accuracy    <       0.00000874 Ry

     iteration # 23     ecut=     5.00 Ry     beta= 0.70
     Davidson diagonalization with overlap

---- Real-time Memory Report at c_bands before calling an iterative solver
            57 MiB given to the printing process from OS
             0 MiB allocation reported by mallinfo(arena+hblkhd)
          1265 MiB available memory on the node where the printing process lives
------------------
     ethr =  1.89E-08,  avg # of iterations =  3.0

     negative rho (up, down):  3.928E-01 0.000E+00

     total cpu time spent up to now is        1.8 secs

     total energy              =      -1.91082181 Ry
     estimated scf accuracy    <       0.00000543 Ry

     iteration # 24     ecut=     5.00 Ry     beta= 0.70
     Davidson diagonalization with overlap

---- Real-time Memory Report at c_bands before calling an iterative solver
            57 MiB given to the printing process from OS
             0 MiB allocation reported by mallinfo(arena+hblkhd)
          1265 MiB available memory on the node where the printing process lives
------------------
     ethr =  1.89E-08,  avg # of iterations =  3.0

     negative rho (up, down):  3.928E-01 0.000E+00

     total cpu time spent up to now is        1.9 secs

     total energy              =      -1.91083205 Ry
     estimated scf accuracy    <       0.00000356 Ry

     iteration # 25     ecut=     5.00 Ry     beta= 0.70
     Davidson diagonalization with overlap

---- Real-time Memory Report at c_bands before calling an iterative solver
            57 MiB given to the printing process from OS
             0 MiB allocation reported by mallinfo(arena+hblkhd)
          1265 MiB available memory on the node where the printing process lives
------------------
     ethr =  1.89E-08,  avg # of iterations =  2.0

     negative rho (up, down):  3.924E-01 0.000E+00

     total cpu time spent up to now is        2.0 secs

     total energy              =      -1.91088706 Ry
     estimated scf accuracy    <       0.00000364 Ry

     iteration # 26     ecut=     5.00 Ry     beta= 0.70
     Davidson diagonalization with overlap

---- Real-time Memory Report at c_bands before calling an iterative solver
            57 MiB given to the printing process from OS
             0 MiB allocation reported by mallinfo(arena+hblkhd)
          1265 MiB available memory on the node where the printing process lives
------------------
     ethr =  1.89E-08,  avg # of iterations =  3.0

     negative rho (up, down):  3.923E-01 0.000E+00

     total cpu time spent up to now is        2.0 secs

     total energy              =      -1.91090992 Ry
     estimated scf accuracy    <       0.00000129 Ry

     iteration # 27     ecut=     5.00 Ry     beta= 0.70
     Davidson diagonalization with overlap

---- Real-time Memory Report at c_bands before calling an iterative solver
            57 MiB given to the printing process from OS
             0 MiB allocation reported by mallinfo(arena+hblkhd)
          1265 MiB available memory on the node where the printing process lives
------------------
     ethr =  1.89E-08,  avg # of iterations =  2.0

     negative rho (up, down):  3.923E-01 0.000E+00

     total cpu time spent up to now is        2.1 secs

     total energy              =      -1.91089803 Ry
     estimated scf accuracy    <       0.00000140 Ry

     iteration # 28     ecut=     5.00 Ry     beta= 0.70
     Davidson diagonalization with overlap

---- Real-time Memory Report at c_bands before calling an iterative solver
            57 MiB given to the printing process from OS
             0 MiB allocation reported by mallinfo(arena+hblkhd)
          1265 MiB available memory on the node where the printing process lives
------------------
     ethr =  1.89E-08,  avg # of iterations =  3.0

     negative rho (up, down):  3.925E-01 0.000E+00

     total cpu time spent up to now is        2.2 secs

     total energy              =      -1.91086809 Ry
     estimated scf accuracy    <       0.00000090 Ry

     iteration # 29     ecut=     5.00 Ry     beta= 0.70
     Davidson diagonalization with overlap

---- Real-time Memory Report at c_bands before calling an iterative solver
            57 MiB given to the printing process from OS
             0 MiB allocation reported by mallinfo(arena+hblkhd)
          1265 MiB available memory on the node where the printing process lives
------------------
     ethr =  1.89E-08,  avg # of iterations =  2.0

     negative rho (up, down):  3.923E-01 0.000E+00

     total cpu time spent up to now is        2.3 secs

     total energy              =      -1.91089855 Ry
     estimated scf accuracy    <       0.00000071 Ry

     iteration # 30     ecut=     5.00 Ry     beta= 0.70
     Davidson diagonalization with overlap

---- Real-time Memory Report at c_bands before calling an iterative solver
            57 MiB given to the printing process from OS
             0 MiB allocation reported by mallinfo(arena+hblkhd)
          1265 MiB available memory on the node where the printing process lives
------------------
     ethr =  1.89E-08,  avg # of iterations =  2.0

     negative rho (up, down):  3.924E-01 0.000E+00

     total cpu time spent up to now is        2.3 secs

     total energy              =      -1.91088445 Ry
     estimated scf accuracy    <       0.00000083 Ry

     iteration # 31     ecut=     5.00 Ry     beta= 0.70
     Davidson diagonalization with overlap

---- Real-time Memory Report at c_bands before calling an iterative solver
            57 MiB given to the printing process from OS
             0 MiB allocation reported by mallinfo(arena+hblkhd)
          1265 MiB available memory on the node where the printing process lives
------------------
     ethr =  1.89E-08,  avg # of iterations =  2.0

     negative rho (up, down):  3.925E-01 0.000E+00

     total cpu time spent up to now is        2.4 secs

     total energy              =      -1.91083753 Ry
     estimated scf accuracy    <       0.00000073 Ry

     iteration # 32     ecut=     5.00 Ry     beta= 0.70
     Davidson diagonalization with overlap

---- Real-time Memory Report at c_bands before calling an iterative solver
            57 MiB given to the printing process from OS
             0 MiB allocation reported by mallinfo(arena+hblkhd)
          1265 MiB available memory on the node where the printing process lives
------------------
     ethr =  1.89E-08,  avg # of iterations =  3.0

     negative rho (up, down):  3.921E-01 0.000E+00

     total cpu time spent up to now is        2.5 secs

     total energy              =      -1.91108163 Ry
     estimated scf accuracy    <       0.00000085 Ry

     iteration # 33     ecut=     5.00 Ry     beta= 0.70
     Davidson diagonalization with overlap

---- Real-time Memory Report at c_bands before calling an iterative solver
            57 MiB given to the printing process from OS
             0 MiB allocation reported by mallinfo(arena+hblkhd)
          1265 MiB available memory on the node where the printing process lives
------------------
     ethr =  1.89E-08,  avg # of iterations =  3.0

     negative rho (up, down):  3.914E-01 0.000E+00

     total cpu time spent up to now is        2.6 secs

     total energy              =      -1.91121702 Ry
     estimated scf accuracy    <       0.00000401 Ry

     iteration # 34     ecut=     5.00 Ry     beta= 0.70
     Davidson diagonalization with overlap

---- Real-time Memory Report at c_bands before calling an iterative solver
            57 MiB given to the printing process from OS
             0 MiB allocation reported by mallinfo(arena+hblkhd)
          1265 MiB available memory on the node where the printing process lives
------------------
     ethr =  1.89E-08,  avg # of iterations =  3.0

     negative rho (up, down):  3.912E-01 0.000E+00

     total cpu time spent up to now is        2.6 secs

     total energy              =      -1.91115048 Ry
     estimated scf accuracy    <       0.00000686 Ry

     iteration # 35     ecut=     5.00 Ry     beta= 0.70
     Davidson diagonalization with overlap

---- Real-time Memory Report at c_bands before calling an iterative solver
            57 MiB given to the printing process from OS
             0 MiB allocation reported by mallinfo(arena+hblkhd)
          1265 MiB available memory on the node where the printing process lives
------------------
     ethr =  1.89E-08,  avg # of iterations =  3.0

     negative rho (up, down):  3.913E-01 0.000E+00

     total cpu time spent up to now is        2.7 secs

     total energy              =      -1.91117580 Ry
     estimated scf accuracy    <       0.00001426 Ry

     iteration # 36     ecut=     5.00 Ry     beta= 0.70
     Davidson diagonalization with overlap

---- Real-time Memory Report at c_bands before calling an iterative solver
            57 MiB given to the printing process from OS
             0 MiB allocation reported by mallinfo(arena+hblkhd)
          1265 MiB available memory on the node where the printing process lives
------------------
     ethr =  1.89E-08,  avg # of iterations =  2.0

     negative rho (up, down):  3.920E-01 0.000E+00

     total cpu time spent up to now is        2.8 secs

     total energy              =      -1.91101334 Ry
     estimated scf accuracy    <       0.00001115 Ry

     iteration # 37     ecut=     5.00 Ry     beta= 0.70
     Davidson diagonalization with overlap

---- Real-time Memory Report at c_bands before calling an iterative solver
            57 MiB given to the printing process from OS
             0 MiB allocation reported by mallinfo(arena+hblkhd)
          1265 MiB available memory on the node where the printing process lives
------------------
     ethr =  1.89E-08,  avg # of iterations =  3.0

     negative rho (up, down):  3.924E-01 0.000E+00

     total cpu time spent up to now is        2.9 secs

     total energy              =      -1.91087677 Ry
     estimated scf accuracy    <       0.00001188 Ry

     iteration # 38     ecut=     5.00 Ry     beta= 0.70
     Davidson diagonalization with overlap

---- Real-time Memory Report at c_bands before calling an iterative solver
            57 MiB given to the printing process from OS
             0 MiB allocation reported by mallinfo(arena+hblkhd)
          1265 MiB available memory on the node where the printing process lives
------------------
     ethr =  1.89E-08,  avg # of iterations =  3.0

     negative rho (up, down):  3.924E-01 0.000E+00

     total cpu time spent up to now is        2.9 secs

     total energy              =      -1.91090489 Ry
     estimated scf accuracy    <       0.00000187 Ry

     iteration # 39     ecut=     5.00 Ry     beta= 0.70
     Davidson diagonalization with overlap

---- Real-time Memory Report at c_bands before calling an iterative solver
            57 MiB given to the printing process from OS
             0 MiB allocation reported by mallinfo(arena+hblkhd)
          1265 MiB available memory on the node where the printing process lives
------------------
     ethr =  1.89E-08,  avg # of iterations =  3.0

     negative rho (up, down):  3.925E-01 0.000E+00

     total cpu time spent up to now is        3.0 secs

     total energy              =      -1.91088268 Ry
     estimated scf accuracy    <       0.00000156 Ry

     iteration # 40     ecut=     5.00 Ry     beta= 0.70
     Davidson diagonalization with overlap

---- Real-time Memory Report at c_bands before calling an iterative solver
            57 MiB given to the printing process from OS
             0 MiB allocation reported by mallinfo(arena+hblkhd)
          1265 MiB available memory on the node where the printing process lives
------------------
     ethr =  1.89E-08,  avg # of iterations =  3.0

     negative rho (up, down):  3.929E-01 0.000E+00

     total cpu time spent up to now is        3.1 secs

     total energy              =      -1.91076384 Ry
     estimated scf accuracy    <       0.00000288 Ry

     iteration # 41     ecut=     5.00 Ry     beta= 0.70
     Davidson diagonalization with overlap

---- Real-time Memory Report at c_bands before calling an iterative solver
            57 MiB given to the printing process from OS
             0 MiB allocation reported by mallinfo(arena+hblkhd)
          1265 MiB available memory on the node where the printing process lives
------------------
     ethr =  1.89E-08,  avg # of iterations =  3.0

     negative rho (up, down):  3.928E-01 0.000E+00

     total cpu time spent up to now is        3.2 secs

     total energy              =      -1.91079354 Ry
     estimated scf accuracy    <       0.00000071 Ry

     iteration # 42     ecut=     5.00 Ry     beta= 0.70
     Davidson diagonalization with overlap

---- Real-time Memory Report at c_bands before calling an iterative solver
            57 MiB given to the printing process from OS
             0 MiB allocation reported by mallinfo(arena+hblkhd)
          1265 MiB available memory on the node where the printing process lives
------------------
     ethr =  1.89E-08,  avg # of iterations =  3.0

     negative rho (up, down):  3.928E-01 0.000E+00

     total cpu time spent up to now is        3.2 secs

     total energy              =      -1.91084232 Ry
     estimated scf accuracy    <       0.00000298 Ry

     iteration # 43     ecut=     5.00 Ry     beta= 0.70
     Davidson diagonalization with overlap

---- Real-time Memory Report at c_bands before calling an iterative solver
            57 MiB given to the printing process from OS
             0 MiB allocation reported by mallinfo(arena+hblkhd)
          1265 MiB available memory on the node where the printing process lives
------------------
     ethr =  1.89E-08,  avg # of iterations =  3.0

     negative rho (up, down):  3.931E-01 0.000E+00

     total cpu time spent up to now is        3.3 secs

     total energy              =      -1.91071301 Ry
     estimated scf accuracy    <       0.00000128 Ry

     iteration # 44     ecut=     5.00 Ry     beta= 0.70
     Davidson diagonalization with overlap

---- Real-time Memory Report at c_bands before calling an iterative solver
            57 MiB given to the printing process from OS
             0 MiB allocation reported by mallinfo(arena+hblkhd)
          1265 MiB available memory on the node where the printing process lives
------------------
     ethr =  1.89E-08,  avg # of iterations =  3.0

     negative rho (up, down):  3.924E-01 0.000E+00

     total cpu time spent up to now is        3.4 secs

     total energy              =      -1.91097806 Ry
     estimated scf accuracy    <       0.00000406 Ry

     iteration # 45     ecut=     5.00 Ry     beta= 0.70
     Davidson diagonalization with overlap

---- Real-time Memory Report at c_bands before calling an iterative solver
            57 MiB given to the printing process from OS
             0 MiB allocation reported by mallinfo(arena+hblkhd)
          1265 MiB available memory on the node where the printing process lives
------------------
     ethr =  1.89E-08,  avg # of iterations =  3.0

     negative rho (up, down):  3.922E-01 0.000E+00

     total cpu time spent up to now is        3.4 secs

     total energy              =      -1.91092053 Ry
     estimated scf accuracy    <       0.00000329 Ry

     iteration # 46     ecut=     5.00 Ry     beta= 0.70
     Davidson diagonalization with overlap

---- Real-time Memory Report at c_bands before calling an iterative solver
            57 MiB given to the printing process from OS
             0 MiB allocation reported by mallinfo(arena+hblkhd)
          1265 MiB available memory on the node where the printing process lives
------------------
     ethr =  1.89E-08,  avg # of iterations =  2.0

     negative rho (up, down):  3.927E-01 0.000E+00

     total cpu time spent up to now is        3.5 secs

     total energy              =      -1.91090145 Ry
     estimated scf accuracy    <       0.00000151 Ry

     iteration # 47     ecut=     5.00 Ry     beta= 0.70
     Davidson diagonalization with overlap

---- Real-time Memory Report at c_bands before calling an iterative solver
            57 MiB given to the printing process from OS
             0 MiB allocation reported by mallinfo(arena+hblkhd)
          1265 MiB available memory on the node where the printing process lives
------------------
     ethr =  1.89E-08,  avg # of iterations =  3.0

     negative rho (up, down):  3.921E-01 0.000E+00

     total cpu time spent up to now is        3.6 secs

     total energy              =      -1.91093749 Ry
     estimated scf accuracy    <       0.00000197 Ry

     iteration # 48     ecut=     5.00 Ry     beta= 0.70
     Davidson diagonalization with overlap

---- Real-time Memory Report at c_bands before calling an iterative solver
            57 MiB given to the printing process from OS
             0 MiB allocation reported by mallinfo(arena+hblkhd)
          1265 MiB available memory on the node where the printing process lives
------------------
     ethr =  1.89E-08,  avg # of iterations =  3.0

     negative rho (up, down):  3.920E-01 0.000E+00

     total cpu time spent up to now is        3.7 secs

     total energy              =      -1.91099850 Ry
     estimated scf accuracy    <       0.00000200 Ry

     iteration # 49     ecut=     5.00 Ry     beta= 0.70
     Davidson diagonalization with overlap

---- Real-time Memory Report at c_bands before calling an iterative solver
            57 MiB given to the printing process from OS
             0 MiB allocation reported by mallinfo(arena+hblkhd)
          1265 MiB available memory on the node where the printing process lives
------------------
     ethr =  1.89E-08,  avg # of iterations =  2.0

     negative rho (up, down):  3.921E-01 0.000E+00

     total cpu time spent up to now is        3.7 secs

     total energy              =      -1.91095960 Ry
     estimated scf accuracy    <       0.00000224 Ry

     iteration # 50     ecut=     5.00 Ry     beta= 0.70
     Davidson diagonalization with overlap

---- Real-time Memory Report at c_bands before calling an iterative solver
            57 MiB given to the printing process from OS
             0 MiB allocation reported by mallinfo(arena+hblkhd)
          1265 MiB available memory on the node where the printing process lives
------------------
     ethr =  1.89E-08,  avg # of iterations =  2.0

     negative rho (up, down):  3.925E-01 0.000E+00

     total cpu time spent up to now is        3.8 secs

     total energy              =      -1.91088077 Ry
     estimated scf accuracy    <       0.00000168 Ry

     iteration # 51     ecut=     5.00 Ry     beta= 0.70
     Davidson diagonalization with overlap

---- Real-time Memory Report at c_bands before calling an iterative solver
            57 MiB given to the printing process from OS
             0 MiB allocation reported by mallinfo(arena+hblkhd)
          1265 MiB available memory on the node where the printing process lives
------------------
     ethr =  1.89E-08,  avg # of iterations =  3.0

     negative rho (up, down):  3.913E-01 0.000E+00

     total cpu time spent up to now is        3.9 secs

     total energy              =      -1.91111066 Ry
     estimated scf accuracy    <       0.00000266 Ry

     iteration # 52     ecut=     5.00 Ry     beta= 0.70
     Davidson diagonalization with overlap

---- Real-time Memory Report at c_bands before calling an iterative solver
            57 MiB given to the printing process from OS
             0 MiB allocation reported by mallinfo(arena+hblkhd)
          1265 MiB available memory on the node where the printing process lives
------------------
     ethr =  1.89E-08,  avg # of iterations =  3.0

     negative rho (up, down):  3.922E-01 0.000E+00

     total cpu time spent up to now is        4.0 secs

     total energy              =      -1.91091747 Ry
     estimated scf accuracy    <       0.00000470 Ry

     iteration # 53     ecut=     5.00 Ry     beta= 0.70
     Davidson diagonalization with overlap

---- Real-time Memory Report at c_bands before calling an iterative solver
            57 MiB given to the printing process from OS
             0 MiB allocation reported by mallinfo(arena+hblkhd)
          1265 MiB available memory on the node where the printing process lives
------------------
     ethr =  1.89E-08,  avg # of iterations =  2.0

     negative rho (up, down):  3.932E-01 0.000E+00

     total cpu time spent up to now is        4.0 secs

     total energy              =      -1.91062772 Ry
     estimated scf accuracy    <       0.00000097 Ry

     iteration # 54     ecut=     5.00 Ry     beta= 0.70
     Davidson diagonalization with overlap

---- Real-time Memory Report at c_bands before calling an iterative solver
            57 MiB given to the printing process from OS
             0 MiB allocation reported by mallinfo(arena+hblkhd)
          1265 MiB available memory on the node where the printing process lives
------------------
     ethr =  1.89E-08,  avg # of iterations =  4.0

     negative rho (up, down):  3.933E-01 0.000E+00

     total cpu time spent up to now is        4.1 secs

     total energy              =      -1.91068410 Ry
     estimated scf accuracy    <       0.00000327 Ry

     iteration # 55     ecut=     5.00 Ry     beta= 0.70
     Davidson diagonalization with overlap

---- Real-time Memory Report at c_bands before calling an iterative solver
            57 MiB given to the printing process from OS
             0 MiB allocation reported by mallinfo(arena+hblkhd)
          1265 MiB available memory on the node where the printing process lives
------------------
     ethr =  1.89E-08,  avg # of iterations =  3.0

     negative rho (up, down):  3.932E-01 0.000E+00

     total cpu time spent up to now is        4.2 secs

     total energy              =      -1.91074677 Ry
     estimated scf accuracy    <       0.00000445 Ry

     iteration # 56     ecut=     5.00 Ry     beta= 0.70
     Davidson diagonalization with overlap

---- Real-time Memory Report at c_bands before calling an iterative solver
            57 MiB given to the printing process from OS
             0 MiB allocation reported by mallinfo(arena+hblkhd)
          1265 MiB available memory on the node where the printing process lives
------------------
     ethr =  1.89E-08,  avg # of iterations =  3.0

     negative rho (up, down):  3.929E-01 0.000E+00

     total cpu time spent up to now is        4.3 secs

     total energy              =      -1.91075549 Ry
     estimated scf accuracy    <       0.00000547 Ry

     iteration # 57     ecut=     5.00 Ry     beta= 0.70
     Davidson diagonalization with overlap

---- Real-time Memory Report at c_bands before calling an iterative solver
            57 MiB given to the printing process from OS
             0 MiB allocation reported by mallinfo(arena+hblkhd)
          1265 MiB available memory on the node where the printing process lives
------------------
     ethr =  1.89E-08,  avg # of iterations =  3.0

     negative rho (up, down):  3.927E-01 0.000E+00

     total cpu time spent up to now is        4.3 secs

     total energy              =      -1.91082757 Ry
     estimated scf accuracy    <       0.00000170 Ry

     iteration # 58     ecut=     5.00 Ry     beta= 0.70
     Davidson diagonalization with overlap

---- Real-time Memory Report at c_bands before calling an iterative solver
            57 MiB given to the printing process from OS
             0 MiB allocation reported by mallinfo(arena+hblkhd)
          1265 MiB available memory on the node where the printing process lives
------------------
     ethr =  1.89E-08,  avg # of iterations =  3.0

     negative rho (up, down):  3.926E-01 0.000E+00

     total cpu time spent up to now is        4.4 secs

     total energy              =      -1.91083139 Ry
     estimated scf accuracy    <       0.00000201 Ry

     iteration # 59     ecut=     5.00 Ry     beta= 0.70
     Davidson diagonalization with overlap

---- Real-time Memory Report at c_bands before calling an iterative solver
            57 MiB given to the printing process from OS
             0 MiB allocation reported by mallinfo(arena+hblkhd)
          1265 MiB available memory on the node where the printing process lives
------------------
     ethr =  1.89E-08,  avg # of iterations =  3.0

     negative rho (up, down):  3.923E-01 0.000E+00

     total cpu time spent up to now is        4.5 secs

     total energy              =      -1.91090411 Ry
     estimated scf accuracy    <       0.00000095 Ry

     iteration # 60     ecut=     5.00 Ry     beta= 0.70
     Davidson diagonalization with overlap

---- Real-time Memory Report at c_bands before calling an iterative solver
            57 MiB given to the printing process from OS
             0 MiB allocation reported by mallinfo(arena+hblkhd)
          1265 MiB available memory on the node where the printing process lives
------------------
     ethr =  1.89E-08,  avg # of iterations =  3.0

     negative rho (up, down):  3.930E-01 0.000E+00

     total cpu time spent up to now is        4.6 secs

     total energy              =      -1.91071164 Ry
     estimated scf accuracy    <       0.00000084 Ry

     iteration # 61     ecut=     5.00 Ry     beta= 0.70
     Davidson diagonalization with overlap

---- Real-time Memory Report at c_bands before calling an iterative solver
            57 MiB given to the printing process from OS
             0 MiB allocation reported by mallinfo(arena+hblkhd)
          1265 MiB available memory on the node where the printing process lives
------------------
     ethr =  1.89E-08,  avg # of iterations =  4.0

     negative rho (up, down):  3.927E-01 0.000E+00

     total cpu time spent up to now is        4.7 secs

     total energy              =      -1.91081900 Ry
     estimated scf accuracy    <       0.00000241 Ry

     iteration # 62     ecut=     5.00 Ry     beta= 0.70
     Davidson diagonalization with overlap

---- Real-time Memory Report at c_bands before calling an iterative solver
            57 MiB given to the printing process from OS
             0 MiB allocation reported by mallinfo(arena+hblkhd)
          1265 MiB available memory on the node where the printing process lives
------------------
     ethr =  1.89E-08,  avg # of iterations =  3.0

     negative rho (up, down):  3.922E-01 0.000E+00

     total cpu time spent up to now is        4.7 secs

     total energy              =      -1.91093701 Ry
     estimated scf accuracy    <       0.00000093 Ry

     iteration # 63     ecut=     5.00 Ry     beta= 0.70
     Davidson diagonalization with overlap

---- Real-time Memory Report at c_bands before calling an iterative solver
            57 MiB given to the printing process from OS
             0 MiB allocation reported by mallinfo(arena+hblkhd)
          1265 MiB available memory on the node where the printing process lives
------------------
     ethr =  1.89E-08,  avg # of iterations =  3.0

     negative rho (up, down):  3.919E-01 0.000E+00

     total cpu time spent up to now is        4.8 secs

     total energy              =      -1.91100804 Ry
     estimated scf accuracy    <       0.00000142 Ry

     iteration # 64     ecut=     5.00 Ry     beta= 0.70
     Davidson diagonalization with overlap

---- Real-time Memory Report at c_bands before calling an iterative solver
            57 MiB given to the printing process from OS
             0 MiB allocation reported by mallinfo(arena+hblkhd)
          1265 MiB available memory on the node where the printing process lives
------------------
     ethr =  1.89E-08,  avg # of iterations =  2.0

     negative rho (up, down):  3.921E-01 0.000E+00

     total cpu time spent up to now is        4.9 secs

     total energy              =      -1.91095882 Ry
     estimated scf accuracy    <       0.00000212 Ry

     iteration # 65     ecut=     5.00 Ry     beta= 0.70
     Davidson diagonalization with overlap

---- Real-time Memory Report at c_bands before calling an iterative solver
            57 MiB given to the printing process from OS
             0 MiB allocation reported by mallinfo(arena+hblkhd)
          1265 MiB available memory on the node where the printing process lives
------------------
     ethr =  1.89E-08,  avg # of iterations =  2.0

     negative rho (up, down):  3.920E-01 0.000E+00

     total cpu time spent up to now is        4.9 secs

     total energy              =      -1.91097106 Ry
     estimated scf accuracy    <       0.00000157 Ry

     iteration # 66     ecut=     5.00 Ry     beta= 0.70
     Davidson diagonalization with overlap

---- Real-time Memory Report at c_bands before calling an iterative solver
            57 MiB given to the printing process from OS
             0 MiB allocation reported by mallinfo(arena+hblkhd)
          1265 MiB available memory on the node where the printing process lives
------------------
     ethr =  1.89E-08,  avg # of iterations =  2.0

     negative rho (up, down):  3.919E-01 0.000E+00

     total cpu time spent up to now is        5.0 secs

     total energy              =      -1.91101938 Ry
     estimated scf accuracy    <       0.00000172 Ry

     iteration # 67     ecut=     5.00 Ry     beta= 0.70
     Davidson diagonalization with overlap

---- Real-time Memory Report at c_bands before calling an iterative solver
            57 MiB given to the printing process from OS
             0 MiB allocation reported by mallinfo(arena+hblkhd)
          1265 MiB available memory on the node where the printing process lives
------------------
     ethr =  1.89E-08,  avg # of iterations =  3.0

     negative rho (up, down):  3.917E-01 0.000E+00

     total cpu time spent up to now is        5.1 secs

     total energy              =      -1.91107431 Ry
     estimated scf accuracy    <       0.00000171 Ry

     iteration # 68     ecut=     5.00 Ry     beta= 0.70
     Davidson diagonalization with overlap

---- Real-time Memory Report at c_bands before calling an iterative solver
            57 MiB given to the printing process from OS
             0 MiB allocation reported by mallinfo(arena+hblkhd)
          1265 MiB available memory on the node where the printing process lives
------------------
     ethr =  1.89E-08,  avg # of iterations =  2.0

     negative rho (up, down):  3.933E-01 0.000E+00

     total cpu time spent up to now is        5.2 secs

     total energy              =      -1.91060472 Ry
     estimated scf accuracy    <       0.00000267 Ry

     iteration # 69     ecut=     5.00 Ry     beta= 0.70
     Davidson diagonalization with overlap

---- Real-time Memory Report at c_bands before calling an iterative solver
            57 MiB given to the printing process from OS
             0 MiB allocation reported by mallinfo(arena+hblkhd)
          1265 MiB available memory on the node where the printing process lives
------------------
     ethr =  1.89E-08,  avg # of iterations =  4.0

     negative rho (up, down):  3.938E-01 0.000E+00

     total cpu time spent up to now is        5.2 secs

     total energy              =      -1.91067628 Ry
     estimated scf accuracy    <       0.00000473 Ry

     iteration # 70     ecut=     5.00 Ry     beta= 0.70
     Davidson diagonalization with overlap

---- Real-time Memory Report at c_bands before calling an iterative solver
            57 MiB given to the printing process from OS
             0 MiB allocation reported by mallinfo(arena+hblkhd)
          1265 MiB available memory on the node where the printing process lives
------------------
     ethr =  1.89E-08,  avg # of iterations =  4.0

     negative rho (up, down):  3.948E-01 0.000E+00

     total cpu time spent up to now is        5.3 secs

     total energy              =      -1.91149374 Ry
     estimated scf accuracy    <       0.00002020 Ry

     iteration # 71     ecut=     5.00 Ry     beta= 0.70
     Davidson diagonalization with overlap

---- Real-time Memory Report at c_bands before calling an iterative solver
            57 MiB given to the printing process from OS
             0 MiB allocation reported by mallinfo(arena+hblkhd)
          1265 MiB available memory on the node where the printing process lives
------------------
     ethr =  1.89E-08,  avg # of iterations =  5.0

     negative rho (up, down):  3.976E-01 0.000E+00

     total cpu time spent up to now is        5.4 secs

     total energy              =      -1.90903117 Ry
     estimated scf accuracy    <       0.00019666 Ry

     iteration # 72     ecut=     5.00 Ry     beta= 0.70
     Davidson diagonalization with overlap

---- Real-time Memory Report at c_bands before calling an iterative solver
            57 MiB given to the printing process from OS
             0 MiB allocation reported by mallinfo(arena+hblkhd)
          1265 MiB available memory on the node where the printing process lives
------------------
     ethr =  1.89E-08,  avg # of iterations =  5.0

     negative rho (up, down):  3.946E-01 0.000E+00

     total cpu time spent up to now is        5.5 secs

     total energy              =      -1.91156178 Ry
     estimated scf accuracy    <       0.00000442 Ry

     iteration # 73     ecut=     5.00 Ry     beta= 0.70
     Davidson diagonalization with overlap

---- Real-time Memory Report at c_bands before calling an iterative solver
            57 MiB given to the printing process from OS
             0 MiB allocation reported by mallinfo(arena+hblkhd)
          1265 MiB available memory on the node where the printing process lives
------------------
     ethr =  1.89E-08,  avg # of iterations =  5.0

     negative rho (up, down):  3.956E-01 0.000E+00

     total cpu time spent up to now is        5.6 secs

     total energy              =      -1.91102600 Ry
     estimated scf accuracy    <       0.00025170 Ry

     iteration # 74     ecut=     5.00 Ry     beta= 0.70
     Davidson diagonalization with overlap

---- Real-time Memory Report at c_bands before calling an iterative solver
            57 MiB given to the printing process from OS
             0 MiB allocation reported by mallinfo(arena+hblkhd)
          1265 MiB available memory on the node where the printing process lives
------------------
     ethr =  1.89E-08,  avg # of iterations =  4.0

     negative rho (up, down):  3.934E-01 0.000E+00

     total cpu time spent up to now is        5.6 secs

     total energy              =      -1.91015709 Ry
     estimated scf accuracy    <       0.00007225 Ry

     iteration # 75     ecut=     5.00 Ry     beta= 0.70
     Davidson diagonalization with overlap

---- Real-time Memory Report at c_bands before calling an iterative solver
            57 MiB given to the printing process from OS
             0 MiB allocation reported by mallinfo(arena+hblkhd)
          1265 MiB available memory on the node where the printing process lives
------------------
     ethr =  1.89E-08,  avg # of iterations =  4.0

     negative rho (up, down):  3.905E-01 0.000E+00

     total cpu time spent up to now is        5.7 secs

     total energy              =      -1.91114868 Ry
     estimated scf accuracy    <       0.00001426 Ry

     iteration # 76     ecut=     5.00 Ry     beta= 0.70
     Davidson diagonalization with overlap

---- Real-time Memory Report at c_bands before calling an iterative solver
            57 MiB given to the printing process from OS
             0 MiB allocation reported by mallinfo(arena+hblkhd)
          1265 MiB available memory on the node where the printing process lives
------------------
     ethr =  1.89E-08,  avg # of iterations =  4.0

     negative rho (up, down):  3.906E-01 0.000E+00

     total cpu time spent up to now is        5.8 secs

     total energy              =      -1.91132611 Ry
     estimated scf accuracy    <       0.00001794 Ry

     iteration # 77     ecut=     5.00 Ry     beta= 0.70
     Davidson diagonalization with overlap

---- Real-time Memory Report at c_bands before calling an iterative solver
            57 MiB given to the printing process from OS
             0 MiB allocation reported by mallinfo(arena+hblkhd)
          1265 MiB available memory on the node where the printing process lives
------------------
     ethr =  1.89E-08,  avg # of iterations =  3.0

     negative rho (up, down):  3.916E-01 0.000E+00

     total cpu time spent up to now is        5.8 secs

     total energy              =      -1.91107176 Ry
     estimated scf accuracy    <       0.00001922 Ry

     iteration # 78     ecut=     5.00 Ry     beta= 0.70
     Davidson diagonalization with overlap

---- Real-time Memory Report at c_bands before calling an iterative solver
            57 MiB given to the printing process from OS
             0 MiB allocation reported by mallinfo(arena+hblkhd)
          1265 MiB available memory on the node where the printing process lives
------------------
     ethr =  1.89E-08,  avg # of iterations =  4.0

     negative rho (up, down):  3.924E-01 0.000E+00

     total cpu time spent up to now is        5.9 secs

     total energy              =      -1.91089252 Ry
     estimated scf accuracy    <       0.00000247 Ry

     iteration # 79     ecut=     5.00 Ry     beta= 0.70
     Davidson diagonalization with overlap

---- Real-time Memory Report at c_bands before calling an iterative solver
            57 MiB given to the printing process from OS
             0 MiB allocation reported by mallinfo(arena+hblkhd)
          1265 MiB available memory on the node where the printing process lives
------------------
     ethr =  1.89E-08,  avg # of iterations =  3.0

     negative rho (up, down):  3.915E-01 0.000E+00

     total cpu time spent up to now is        6.0 secs

     total energy              =      -1.91110584 Ry
     estimated scf accuracy    <       0.00000220 Ry

     iteration # 80     ecut=     5.00 Ry     beta= 0.70
     Davidson diagonalization with overlap

---- Real-time Memory Report at c_bands before calling an iterative solver
            57 MiB given to the printing process from OS
             0 MiB allocation reported by mallinfo(arena+hblkhd)
          1265 MiB available memory on the node where the printing process lives
------------------
     ethr =  1.89E-08,  avg # of iterations =  3.0

     negative rho (up, down):  3.919E-01 0.000E+00

     total cpu time spent up to now is        6.1 secs

     total energy              =      -1.91101799 Ry
     estimated scf accuracy    <       0.00000346 Ry

     iteration # 81     ecut=     5.00 Ry     beta= 0.70
     Davidson diagonalization with overlap

---- Real-time Memory Report at c_bands before calling an iterative solver
            57 MiB given to the printing process from OS
             0 MiB allocation reported by mallinfo(arena+hblkhd)
          1265 MiB available memory on the node where the printing process lives
------------------
     ethr =  1.89E-08,  avg # of iterations =  3.0

     negative rho (up, down):  3.918E-01 0.000E+00

     total cpu time spent up to now is        6.1 secs

     total energy              =      -1.91103703 Ry
     estimated scf accuracy    <       0.00000186 Ry

     iteration # 82     ecut=     5.00 Ry     beta= 0.70
     Davidson diagonalization with overlap

---- Real-time Memory Report at c_bands before calling an iterative solver
            57 MiB given to the printing process from OS
             0 MiB allocation reported by mallinfo(arena+hblkhd)
          1265 MiB available memory on the node where the printing process lives
------------------
     ethr =  1.89E-08,  avg # of iterations =  2.0

     negative rho (up, down):  3.916E-01 0.000E+00

     total cpu time spent up to now is        6.2 secs

     total energy              =      -1.91109591 Ry
     estimated scf accuracy    <       0.00000212 Ry

     iteration # 83     ecut=     5.00 Ry     beta= 0.70
     Davidson diagonalization with overlap

---- Real-time Memory Report at c_bands before calling an iterative solver
            57 MiB given to the printing process from OS
             0 MiB allocation reported by mallinfo(arena+hblkhd)
          1265 MiB available memory on the node where the printing process lives
------------------
     ethr =  1.89E-08,  avg # of iterations =  3.0

     negative rho (up, down):  3.915E-01 0.000E+00

     total cpu time spent up to now is        6.3 secs

     total energy              =      -1.91109743 Ry
     estimated scf accuracy    <       0.00000263 Ry

     iteration # 84     ecut=     5.00 Ry     beta= 0.70
     Davidson diagonalization with overlap

---- Real-time Memory Report at c_bands before calling an iterative solver
            57 MiB given to the printing process from OS
             0 MiB allocation reported by mallinfo(arena+hblkhd)
          1265 MiB available memory on the node where the printing process lives
------------------
     ethr =  1.89E-08,  avg # of iterations =  3.0

     negative rho (up, down):  3.921E-01 0.000E+00

     total cpu time spent up to now is        6.4 secs

     total energy              =      -1.91095764 Ry
     estimated scf accuracy    <       0.00000596 Ry

     iteration # 85     ecut=     5.00 Ry     beta= 0.70
     Davidson diagonalization with overlap

---- Real-time Memory Report at c_bands before calling an iterative solver
            57 MiB given to the printing process from OS
             0 MiB allocation reported by mallinfo(arena+hblkhd)
          1265 MiB available memory on the node where the printing process lives
------------------
     ethr =  1.89E-08,  avg # of iterations =  3.0

     negative rho (up, down):  3.911E-01 0.000E+00

     total cpu time spent up to now is        6.4 secs

     total energy              =      -1.91119129 Ry
     estimated scf accuracy    <       0.00000163 Ry

     iteration # 86     ecut=     5.00 Ry     beta= 0.70
     Davidson diagonalization with overlap

---- Real-time Memory Report at c_bands before calling an iterative solver
            57 MiB given to the printing process from OS
             0 MiB allocation reported by mallinfo(arena+hblkhd)
          1265 MiB available memory on the node where the printing process lives
------------------
     ethr =  1.89E-08,  avg # of iterations =  3.0

     negative rho (up, down):  3.919E-01 0.000E+00

     total cpu time spent up to now is        6.5 secs

     total energy              =      -1.91100774 Ry
     estimated scf accuracy    <       0.00001079 Ry

     iteration # 87     ecut=     5.00 Ry     beta= 0.70
     Davidson diagonalization with overlap

---- Real-time Memory Report at c_bands before calling an iterative solver
            57 MiB given to the printing process from OS
             0 MiB allocation reported by mallinfo(arena+hblkhd)
          1265 MiB available memory on the node where the printing process lives
------------------
     ethr =  1.89E-08,  avg # of iterations =  3.0

     negative rho (up, down):  3.923E-01 0.000E+00

     total cpu time spent up to now is        6.6 secs

     total energy              =      -1.91090955 Ry
     estimated scf accuracy    <       0.00000317 Ry

     iteration # 88     ecut=     5.00 Ry     beta= 0.70
     Davidson diagonalization with overlap

---- Real-time Memory Report at c_bands before calling an iterative solver
            57 MiB given to the printing process from OS
             0 MiB allocation reported by mallinfo(arena+hblkhd)
          1265 MiB available memory on the node where the printing process lives
------------------
     ethr =  1.89E-08,  avg # of iterations =  3.0

     negative rho (up, down):  3.924E-01 0.000E+00

     total cpu time spent up to now is        6.7 secs

     total energy              =      -1.91090247 Ry
     estimated scf accuracy    <       0.00000116 Ry

     iteration # 89     ecut=     5.00 Ry     beta= 0.70
     Davidson diagonalization with overlap

---- Real-time Memory Report at c_bands before calling an iterative solver
            57 MiB given to the printing process from OS
             0 MiB allocation reported by mallinfo(arena+hblkhd)
          1265 MiB available memory on the node where the printing process lives
------------------
     ethr =  1.89E-08,  avg # of iterations =  2.0

     negative rho (up, down):  3.924E-01 0.000E+00

     total cpu time spent up to now is        6.7 secs

     total energy              =      -1.91089872 Ry
     estimated scf accuracy    <       0.00000137 Ry

     iteration # 90     ecut=     5.00 Ry     beta= 0.70
     Davidson diagonalization with overlap

---- Real-time Memory Report at c_bands before calling an iterative solver
            57 MiB given to the printing process from OS
             0 MiB allocation reported by mallinfo(arena+hblkhd)
          1265 MiB available memory on the node where the printing process lives
------------------
     ethr =  1.89E-08,  avg # of iterations =  1.0

     negative rho (up, down):  3.924E-01 0.000E+00

     total cpu time spent up to now is        6.8 secs

     total energy              =      -1.91088336 Ry
     estimated scf accuracy    <       0.00000134 Ry

     iteration # 91     ecut=     5.00 Ry     beta= 0.70
     Davidson diagonalization with overlap

---- Real-time Memory Report at c_bands before calling an iterative solver
            57 MiB given to the printing process from OS
             0 MiB allocation reported by mallinfo(arena+hblkhd)
          1265 MiB available memory on the node where the printing process lives
------------------
     ethr =  1.89E-08,  avg # of iterations =  2.0

     negative rho (up, down):  3.928E-01 0.000E+00

     total cpu time spent up to now is        6.9 secs

     total energy              =      -1.91077748 Ry
     estimated scf accuracy    <       0.00000141 Ry

     iteration # 92     ecut=     5.00 Ry     beta= 0.70
     Davidson diagonalization with overlap

---- Real-time Memory Report at c_bands before calling an iterative solver
            57 MiB given to the printing process from OS
             0 MiB allocation reported by mallinfo(arena+hblkhd)
          1265 MiB available memory on the node where the printing process lives
------------------
     ethr =  1.89E-08,  avg # of iterations =  3.0

     negative rho (up, down):  3.931E-01 0.000E+00

     total cpu time spent up to now is        6.9 secs

     total energy              =      -1.91069669 Ry
     estimated scf accuracy    <       0.00000138 Ry

     iteration # 93     ecut=     5.00 Ry     beta= 0.70
     Davidson diagonalization with overlap

---- Real-time Memory Report at c_bands before calling an iterative solver
            57 MiB given to the printing process from OS
             0 MiB allocation reported by mallinfo(arena+hblkhd)
          1265 MiB available memory on the node where the printing process lives
------------------
     ethr =  1.89E-08,  avg # of iterations =  3.0

     negative rho (up, down):  3.928E-01 0.000E+00

     total cpu time spent up to now is        7.0 secs

     total energy              =      -1.91074264 Ry
     estimated scf accuracy    <       0.00000212 Ry

     iteration # 94     ecut=     5.00 Ry     beta= 0.70
     Davidson diagonalization with overlap

---- Real-time Memory Report at c_bands before calling an iterative solver
            57 MiB given to the printing process from OS
             0 MiB allocation reported by mallinfo(arena+hblkhd)
          1265 MiB available memory on the node where the printing process lives
------------------
     ethr =  1.89E-08,  avg # of iterations =  3.0

     negative rho (up, down):  3.924E-01 0.000E+00

     total cpu time spent up to now is        7.1 secs

     total energy              =      -1.91083573 Ry
     estimated scf accuracy    <       0.00000094 Ry

     iteration # 95     ecut=     5.00 Ry     beta= 0.70
     Davidson diagonalization with overlap

---- Real-time Memory Report at c_bands before calling an iterative solver
            57 MiB given to the printing process from OS
             0 MiB allocation reported by mallinfo(arena+hblkhd)
          1265 MiB available memory on the node where the printing process lives
------------------
     ethr =  1.89E-08,  avg # of iterations =  3.0

     negative rho (up, down):  3.921E-01 0.000E+00

     total cpu time spent up to now is        7.2 secs

     total energy              =      -1.91093079 Ry
     estimated scf accuracy    <       0.00000075 Ry

     iteration # 96     ecut=     5.00 Ry     beta= 0.70
     Davidson diagonalization with overlap

---- Real-time Memory Report at c_bands before calling an iterative solver
            57 MiB given to the printing process from OS
             0 MiB allocation reported by mallinfo(arena+hblkhd)
          1265 MiB available memory on the node where the printing process lives
------------------
     ethr =  1.89E-08,  avg # of iterations =  2.0

     negative rho (up, down):  3.921E-01 0.000E+00

     total cpu time spent up to now is        7.2 secs

     total energy              =      -1.91094359 Ry
     estimated scf accuracy    <       0.00000143 Ry

     iteration # 97     ecut=     5.00 Ry     beta= 0.70
     Davidson diagonalization with overlap

---- Real-time Memory Report at c_bands before calling an iterative solver
            57 MiB given to the printing process from OS
             0 MiB allocation reported by mallinfo(arena+hblkhd)
          1265 MiB available memory on the node where the printing process lives
------------------
     ethr =  1.89E-08,  avg # of iterations =  1.0

     negative rho (up, down):  3.920E-01 0.000E+00

     total cpu time spent up to now is        7.3 secs

     total energy              =      -1.91095753 Ry
     estimated scf accuracy    <       0.00000156 Ry

     iteration # 98     ecut=     5.00 Ry     beta= 0.70
     Davidson diagonalization with overlap

---- Real-time Memory Report at c_bands before calling an iterative solver
            57 MiB given to the printing process from OS
             0 MiB allocation reported by mallinfo(arena+hblkhd)
          1265 MiB available memory on the node where the printing process lives
------------------
     ethr =  1.89E-08,  avg # of iterations =  2.0

     negative rho (up, down):  3.920E-01 0.000E+00

     total cpu time spent up to now is        7.4 secs

     total energy              =      -1.91097240 Ry
     estimated scf accuracy    <       0.00000166 Ry

     iteration # 99     ecut=     5.00 Ry     beta= 0.70
     Davidson diagonalization with overlap

---- Real-time Memory Report at c_bands before calling an iterative solver
            57 MiB given to the printing process from OS
             0 MiB allocation reported by mallinfo(arena+hblkhd)
          1265 MiB available memory on the node where the printing process lives
------------------
     ethr =  1.89E-08,  avg # of iterations =  3.0

     negative rho (up, down):  3.923E-01 0.000E+00

     total cpu time spent up to now is        7.4 secs

     total energy              =      -1.91090267 Ry
     estimated scf accuracy    <       0.00000193 Ry

     iteration #100     ecut=     5.00 Ry     beta= 0.70
     Davidson diagonalization with overlap

---- Real-time Memory Report at c_bands before calling an iterative solver
            57 MiB given to the printing process from OS
             0 MiB allocation reported by mallinfo(arena+hblkhd)
          1265 MiB available memory on the node where the printing process lives
------------------
     ethr =  1.89E-08,  avg # of iterations =  2.0

     negative rho (up, down):  3.921E-01 0.000E+00

     total cpu time spent up to now is        7.5 secs

     total energy              =      -1.91096312 Ry
     estimated scf accuracy    <       0.00000139 Ry

     End of self-consistent calculation

     convergence NOT achieved after 100 iterations: stopping

     Writing config to output data dir ./.save/
     Message from routine punch:
     wavefunctions written to file

     init_run     :      0.07s CPU      0.08s WALL (       1 calls)
     electrons    :      7.39s CPU      7.43s WALL (       1 calls)

     Called by init_run:
     wfcinit      :      0.01s CPU      0.01s WALL (       1 calls)
     wfcinit:atom :      0.00s CPU      0.00s WALL (       1 calls)
     wfcinit:wfcr :      0.00s CPU      0.00s WALL (       1 calls)
     potinit      :      0.04s CPU      0.05s WALL (       1 calls)
     hinit0       :      0.01s CPU      0.01s WALL (       1 calls)

     Called by electrons:
     c_bands      :      1.45s CPU      1.47s WALL (     100 calls)
     sum_band     :      0.80s CPU      0.80s WALL (     100 calls)
     v_of_rho     :      3.98s CPU      4.01s WALL (     101 calls)
     v_h          :      0.20s CPU      0.20s WALL (     101 calls)
     v_xc         :      3.78s CPU      3.81s WALL (     101 calls)
     newd         :      0.25s CPU      0.25s WALL (     101 calls)
     mix_rho      :      0.86s CPU      0.86s WALL (     100 calls)

     Called by c_bands:
     init_us_2    :      0.03s CPU      0.03s WALL (     201 calls)
     init_us_2:cp :      0.03s CPU      0.03s WALL (     201 calls)
     cegterg      :      1.43s CPU      1.44s WALL (     100 calls)

     Called by sum_band:
     sum_band:wei :      0.00s CPU      0.00s WALL (     100 calls)
     sum_band:loo :      0.23s CPU      0.23s WALL (     100 calls)
     sum_band:buf :      0.00s CPU      0.00s WALL (     100 calls)
     sum_band:ini :      0.01s CPU      0.01s WALL (     100 calls)
     sum_band:cal :      0.00s CPU      0.00s WALL (     100 calls)
     sum_band:bec :      0.00s CPU      0.00s WALL (     100 calls)
     addusdens    :      0.07s CPU      0.07s WALL (     100 calls)
     addusd:skk   :      0.03s CPU      0.03s WALL (     100 calls)
     addusd:dgemm :      0.02s CPU      0.02s WALL (     100 calls)
     addusd:qvan2 :      0.02s CPU      0.02s WALL (     100 calls)

     Called by *egterg:
     cdiaghg      :      0.01s CPU      0.01s WALL (     406 calls)
     cegterg:over :      0.02s CPU      0.02s WALL (     306 calls)
     cegterg:upda :      0.01s CPU      0.01s WALL (     306 calls)
     cegterg:last :      0.03s CPU      0.03s WALL (     235 calls)
     h_psi        :      1.33s CPU      1.35s WALL (     407 calls)
     s_psi        :      0.01s CPU      0.01s WALL (     407 calls)
     g_psi        :      0.01s CPU      0.01s WALL (     306 calls)

     Called by h_psi:
     h_psi:calbec :      0.01s CPU      0.01s WALL (     407 calls)
     vloc_psi     :      1.31s CPU      1.32s WALL (     407 calls)
     add_vuspsi   :      0.01s CPU      0.01s WALL (     407 calls)

     General routines
     calbec       :      0.01s CPU      0.01s WALL (     507 calls)
     fft          :      1.72s CPU      1.73s WALL (    1111 calls)
     ffts         :      0.16s CPU      0.16s WALL (     100 calls)
     fftw         :      1.41s CPU      1.42s WALL (    1444 calls)
     davcio       :      0.00s CPU      0.00s WALL (      19 calls)


     PWSCF        :      7.49s CPU      7.54s WALL


   This run was terminated on:  22:14:21  28Feb2022            

=------------------------------------------------------------------------------=
   JOB DONE.
=------------------------------------------------------------------------------=
