
     Program PWSCF v.7.0 starts on 28Feb2022 at  3: 5:12 

     This program is part of the open-source Quantum ESPRESSO suite
     for quantum simulation of materials; please cite
         "P. Giannozzi et al., J. Phys.:Condens. Matter 21 395502 (2009);
         "P. Giannozzi et al., J. Phys.:Condens. Matter 29 465901 (2017);
         "P. Giannozzi et al., J. Chem. Phys. 152 154105 (2020);
          URL http://www.quantum-espresso.org", 
     in publications or presentations arising from this work. More details at
     http://www.quantum-espresso.org/quote

     Serial version
     556 MiB available memory on the printing compute node when the environment starts

     Waiting for input...
     Reading input from standard input

     Current dimensions of program PWSCF are:
     Max number of different atomic species (ntypx) = 10
     Max number of k-points (npk) =  40000
     Max angular momentum in pseudopotentials (lmaxx) =  4

     File ./.update deleted, as requested

     File ./.bfgs deleted, as requested

    ============================================================
    |  pseudopotential report for atomic species:  1           |
    |        pseudo potential version   7   3   2              |
    ------------------------------------------------------------
    |  hydrogen            PBE                  exchange-corr  |
    |  z =   1.    zv( 1) =   1.    exfact =   5.00000         |
    |  ifpcor =  0           atomic energy =  -0.91772 Ry      |
    |  index    orbital      occupation    energy              |
    |    1        100           1.00       -0.48               |
    |  rinner =  0.5000                                        |
    |    new generation scheme:                                |
    |    nbeta =  1     kkbeta =  271     rcloc =    0.6000    |
    |    ibeta    l     epsilon   rcut                         |
    |      1       0      -0.48   0.80                         |
    ============================================================

     IMPORTANT: XC functional enforced from input :
     Exchange-correlation= BLYP
                           (   1   3   1   3   0   0   0)
     Any further DFT definition will be discarded
     Please, verify this is what you really want


     G-vector sticks info
     --------------------
     sticks:   dense  smooth     PW     G-vecs:    dense   smooth      PW
     Sum        4281    4281   1185               211657   211657   30551

     Using Slab Decomposition



     bravais-lattice index     =            1
     lattice parameter (alat)  =      30.0000  a.u.
     unit-cell volume          =   27000.0000 (a.u.)^3
     number of atoms/cell      =            2
     number of atomic types    =            1
     number of electrons       =         2.00
     number of Kohn-Sham states=            2
     kinetic-energy cutoff     =      15.0000  Ry
     charge density cutoff     =      60.0000  Ry
     scf convergence threshold =      1.0E-08
     mixing beta               =       0.7000
     number of iterations used =            8  plain     mixing
     energy convergence thresh.=      1.0E-04
     force convergence thresh. =      1.0E-03
     Exchange-correlation= BLYP
                           (   1   3   1   3   0   0   0)
     nstep                     =           50


     celldm(1)=  30.000000  celldm(2)=   0.000000  celldm(3)=   0.000000
     celldm(4)=   0.000000  celldm(5)=   0.000000  celldm(6)=   0.000000

     crystal axes: (cart. coord. in units of alat)
               a(1) = (   1.000000   0.000000   0.000000 )  
               a(2) = (   0.000000   1.000000   0.000000 )  
               a(3) = (   0.000000   0.000000   1.000000 )  

     reciprocal axes: (cart. coord. in units 2 pi/alat)
               b(1) = (  1.000000  0.000000  0.000000 )  
               b(2) = (  0.000000  1.000000  0.000000 )  
               b(3) = (  0.000000  0.000000  1.000000 )  


     PseudoPot. # 1 for hy read from file:
     /root/q-e/pseudo/H_US.van
     MD5 check sum: a9a9bfe98ff56cf4de197d71fc46bb44
     Pseudo is Ultrasoft, Zval =  1.0
     Generated by Vanderbilt code, v. 7.3.2
     Using radial grid of  399 points,  1 beta functions with: 
                l(1) =   0
     Q(r) pseudized with  8 coefficients,  rinner =    0.500

     atomic species   valence    mass     pseudopotential
        H              1.00     1.00784     hy( 1.00)

      8 Sym. Ops. (no inversion) found


                                    s                        frac. trans.

      isym =  1     identity                                     

 cryst.   s( 1) = (     1          0          0      )
                  (     0          1          0      )
                  (     0          0          1      )

 cart.    s( 1) = (  1.0000000  0.0000000  0.0000000 )
                  (  0.0000000  1.0000000  0.0000000 )
                  (  0.0000000  0.0000000  1.0000000 )


      isym =  2     180 deg rotation - cart. axis [1,0,0]        

 cryst.   s( 2) = (     1          0          0      )
                  (     0         -1          0      )
                  (     0          0         -1      )

 cart.    s( 2) = (  1.0000000  0.0000000  0.0000000 )
                  (  0.0000000 -1.0000000  0.0000000 )
                  (  0.0000000  0.0000000 -1.0000000 )


      isym =  3      90 deg rotation - cart. axis [-1,0,0]       

 cryst.   s( 3) = (     1          0          0      )
                  (     0          0         -1      )
                  (     0          1          0      )

 cart.    s( 3) = (  1.0000000  0.0000000  0.0000000 )
                  (  0.0000000  0.0000000  1.0000000 )
                  (  0.0000000 -1.0000000  0.0000000 )


      isym =  4      90 deg rotation - cart. axis [1,0,0]        

 cryst.   s( 4) = (     1          0          0      )
                  (     0          0          1      )
                  (     0         -1          0      )

 cart.    s( 4) = (  1.0000000  0.0000000  0.0000000 )
                  (  0.0000000  0.0000000 -1.0000000 )
                  (  0.0000000  1.0000000  0.0000000 )


      isym =  5     inv. 180 deg rotation - cart. axis [0,0,1]   

 cryst.   s( 5) = (     1          0          0      )
                  (     0          1          0      )
                  (     0          0         -1      )

 cart.    s( 5) = (  1.0000000  0.0000000  0.0000000 )
                  (  0.0000000  1.0000000  0.0000000 )
                  (  0.0000000  0.0000000 -1.0000000 )


      isym =  6     inv. 180 deg rotation - cart. axis [0,1,0]   

 cryst.   s( 6) = (     1          0          0      )
                  (     0         -1          0      )
                  (     0          0          1      )

 cart.    s( 6) = (  1.0000000  0.0000000  0.0000000 )
                  (  0.0000000 -1.0000000  0.0000000 )
                  (  0.0000000  0.0000000  1.0000000 )


      isym =  7     inv. 180 deg rotation - cart. axis [0,1,1]   

 cryst.   s( 7) = (     1          0          0      )
                  (     0          0         -1      )
                  (     0         -1          0      )

 cart.    s( 7) = (  1.0000000  0.0000000  0.0000000 )
                  (  0.0000000  0.0000000 -1.0000000 )
                  (  0.0000000 -1.0000000  0.0000000 )


      isym =  8     inv. 180 deg rotation - cart. axis [0,1,-1]  

 cryst.   s( 8) = (     1          0          0      )
                  (     0          0          1      )
                  (     0          1          0      )

 cart.    s( 8) = (  1.0000000  0.0000000  0.0000000 )
                  (  0.0000000  0.0000000  1.0000000 )
                  (  0.0000000  1.0000000  0.0000000 )


     point group C_4v (4mm) 
     there are  5 classes
     the character table:

       E     2C4   C2    2s_v  2s_d 
A_1    1.00  1.00  1.00  1.00  1.00
A_2    1.00  1.00  1.00 -1.00 -1.00
B_1    1.00 -1.00  1.00  1.00 -1.00
B_2    1.00 -1.00  1.00 -1.00  1.00
E      2.00  0.00 -2.00  0.00  0.00

     the symmetry operations in each class and the name of the first element:

     E        1
          identity                                               
     2C4      3    4
           90 deg rotation - cart. axis [-1,0,0]                 
     C2       2
          180 deg rotation - cart. axis [1,0,0]                  
     2s_v     5    6
          inv. 180 deg rotation - cart. axis [0,0,1]             
     2s_d     7    8
          inv. 180 deg rotation - cart. axis [0,1,1]             

   Cartesian axes

     site n.     atom                  positions (alat units)
         1           H   tau(   1) = (   0.0000000   0.0000000   0.0000000  )
         2           H   tau(   2) = (   0.0491329   0.0000000   0.0000000  )

   Crystallographic axes

     site n.     atom                  positions (cryst. coord.)
         1           H   tau(   1) = (  0.0000000  0.0000000  0.0000000  )
         2           H   tau(   2) = (  0.0491329  0.0000000  0.0000000  )

     number of k points=     1
                       cart. coord. in units 2pi/alat
        k(    1) = (  -0.5000000  -0.5000000  -0.5000000), wk =   2.0000000

                       cryst. coord.
        k(    1) = (  -0.5000000  -0.5000000  -0.5000000), wk =   2.0000000

     Dense  grid:   211657 G-vectors     FFT dimensions: (  75,  75,  75)

     Dynamical RAM for                 wfc:       0.81 MB

     Dynamical RAM for     wfc (w. buffer):       0.81 MB

     Dynamical RAM for           str. fact:       3.23 MB

     Dynamical RAM for           local pot:       0.00 MB

     Dynamical RAM for          nlocal pot:       0.81 MB

     Dynamical RAM for                qrad:       0.01 MB

     Dynamical RAM for          rho,v,vnew:      19.34 MB

     Dynamical RAM for               rhoin:       6.45 MB

     Dynamical RAM for            rho*nmix:      51.67 MB

     Dynamical RAM for           G-vectors:      13.73 MB

     Dynamical RAM for          h,s,v(r/c):       0.00 MB

     Dynamical RAM for          <psi|beta>:       0.00 MB

     Dynamical RAM for                 psi:       1.62 MB

     Dynamical RAM for                hpsi:       1.62 MB

     Dynamical RAM for                spsi:       1.62 MB

     Dynamical RAM for      wfcinit/wfcrot:       1.62 MB

     Dynamical RAM for           addusdens:      19.38 MB

     Dynamical RAM for          addusforce:      27.45 MB

     Estimated static dynamical RAM per process >      66.92 MB

     Estimated max dynamical RAM per process >     146.05 MB

     Initial potential from superposition of free atoms

     starting charge       2.0000, renormalised to       2.0000

     negative rho (up, down):  9.752E-02 0.000E+00
     Starting wfcs are    2 randomized atomic wfcs

     total cpu time spent up to now is        0.4 secs

     Self-consistent Calculation

     iteration #  1     ecut=    15.00 Ry     beta= 0.70
     Davidson diagonalization with overlap

---- Real-time Memory Report at c_bands before calling an iterative solver
           123 MiB given to the printing process from OS
             0 MiB allocation reported by mallinfo(arena+hblkhd)
           476 MiB available memory on the node where the printing process lives
------------------
     ethr =  1.00E-02,  avg # of iterations =  5.0

     negative rho (up, down):  1.568E-01 0.000E+00

     total cpu time spent up to now is        0.9 secs

     total energy              =      -2.29900218 Ry
     estimated scf accuracy    <       0.11144870 Ry

     iteration #  2     ecut=    15.00 Ry     beta= 0.70
     Davidson diagonalization with overlap

---- Real-time Memory Report at c_bands before calling an iterative solver
           151 MiB given to the printing process from OS
             0 MiB allocation reported by mallinfo(arena+hblkhd)
           418 MiB available memory on the node where the printing process lives
------------------
     ethr =  5.57E-03,  avg # of iterations =  1.0

     negative rho (up, down):  1.700E-01 0.000E+00

     total cpu time spent up to now is        1.2 secs

     total energy              =      -2.29925884 Ry
     estimated scf accuracy    <       0.00136137 Ry

     iteration #  3     ecut=    15.00 Ry     beta= 0.70
     Davidson diagonalization with overlap

---- Real-time Memory Report at c_bands before calling an iterative solver
           158 MiB given to the printing process from OS
             0 MiB allocation reported by mallinfo(arena+hblkhd)
           411 MiB available memory on the node where the printing process lives
------------------
     ethr =  6.81E-05,  avg # of iterations =  9.0

     negative rho (up, down):  1.703E-01 0.000E+00

     total cpu time spent up to now is        1.7 secs

     total energy              =      -2.29937419 Ry
     estimated scf accuracy    <       0.00001396 Ry

     iteration #  4     ecut=    15.00 Ry     beta= 0.70
     Davidson diagonalization with overlap

---- Real-time Memory Report at c_bands before calling an iterative solver
           164 MiB given to the printing process from OS
             0 MiB allocation reported by mallinfo(arena+hblkhd)
           405 MiB available memory on the node where the printing process lives
------------------
     ethr =  6.98E-07,  avg # of iterations =  9.0

     negative rho (up, down):  1.706E-01 0.000E+00

     total cpu time spent up to now is        2.2 secs

     total energy              =      -2.29921191 Ry
     estimated scf accuracy    <       0.00000041 Ry

     iteration #  5     ecut=    15.00 Ry     beta= 0.70
     Davidson diagonalization with overlap

---- Real-time Memory Report at c_bands before calling an iterative solver
           171 MiB given to the printing process from OS
             0 MiB allocation reported by mallinfo(arena+hblkhd)
           398 MiB available memory on the node where the printing process lives
------------------
     ethr =  2.06E-08,  avg # of iterations =  3.0

     negative rho (up, down):  1.706E-01 0.000E+00

     total cpu time spent up to now is        2.6 secs

     total energy              =      -2.29926851 Ry
     estimated scf accuracy    <       0.00000006 Ry

     iteration #  6     ecut=    15.00 Ry     beta= 0.70
     Davidson diagonalization with overlap

---- Real-time Memory Report at c_bands before calling an iterative solver
           177 MiB given to the printing process from OS
             0 MiB allocation reported by mallinfo(arena+hblkhd)
           392 MiB available memory on the node where the printing process lives
------------------
     ethr =  2.88E-09,  avg # of iterations =  4.0

     negative rho (up, down):  1.706E-01 0.000E+00

     total cpu time spent up to now is        3.1 secs

     total energy              =      -2.29925511 Ry
     estimated scf accuracy    <       0.00000006 Ry

     iteration #  7     ecut=    15.00 Ry     beta= 0.70
     Davidson diagonalization with overlap

---- Real-time Memory Report at c_bands before calling an iterative solver
           184 MiB given to the printing process from OS
             0 MiB allocation reported by mallinfo(arena+hblkhd)
           385 MiB available memory on the node where the printing process lives
------------------
     ethr =  2.83E-09,  avg # of iterations =  3.0

     negative rho (up, down):  1.706E-01 0.000E+00

     total cpu time spent up to now is        3.4 secs

     End of self-consistent calculation

          k =-0.5000-0.5000-0.5000 ( 26344 PWs)   bands (ev):

   -10.5008  -1.4916

     occupation numbers 
     1.0000   0.0000

     highest occupied, lowest unoccupied level (ev):   -10.5008   -1.4916

!    total energy              =      -2.29926236 Ry
     estimated scf accuracy    <          7.9E-09 Ry

     The total energy is the sum of the following terms:
     one-electron contribution =      -4.12534774 Ry
     hartree contribution      =       2.21808093 Ry
     xc contribution           =      -1.37089212 Ry
     ewald contribution        =       0.97889657 Ry

     convergence has been achieved in   7 iterations

     Forces acting on atoms (cartesian axes, Ry/au):

     atom    1 type  1   force =     0.05922399    0.00000000    0.00000000
     atom    2 type  1   force =    -0.05922399    0.00000000    0.00000000
     The non-local contrib.  to forces
     atom    1 type  1   force =     0.10157296    0.00000000    0.00000000
     atom    2 type  1   force =    -0.10545233    0.00000000    0.00000000
     The ionic contribution  to forces
     atom    1 type  1   force =    -0.92008025   -0.00000000   -0.00000000
     atom    2 type  1   force =     0.92008025   -0.00000000   -0.00000000
     The local contribution  to forces
     atom    1 type  1   force =     0.87581932    0.00000000    0.00000000
     atom    2 type  1   force =    -0.87598174    0.00000000    0.00000000
     The core correction contribution to forces
     atom    1 type  1   force =     0.00000000    0.00000000    0.00000000
     atom    2 type  1   force =     0.00000000    0.00000000    0.00000000
     The Hubbard contrib.    to forces
     atom    1 type  1   force =     0.00000000    0.00000000    0.00000000
     atom    2 type  1   force =     0.00000000    0.00000000    0.00000000
     The SCF correction term to forces
     atom    1 type  1   force =    -0.00043692    0.00000000    0.00000000
     atom    2 type  1   force =    -0.00021906    0.00000000    0.00000000

     Total force =     0.083755     Total SCF correction =     0.000489

     BFGS Geometry Optimization
     Energy error            =      0.0E+00 Ry
     Gradient error          =      5.9E-02 Ry/Bohr

     number of scf cycles    =   1
     number of bfgs steps    =   0

     energy             new  =      -2.2992623574 Ry

     new trust radius        =       0.0592239911 bohr
     new conv_thr            =       0.0000000100 Ry


ATOMIC_POSITIONS (angstrom)
H             0.0313399865        0.0000000000        0.0000000000
H             0.7486600135        0.0000000000        0.0000000000



     Writing config-only to output data dir ./.save/
     NEW-OLD atomic charge density approx. for the potential

     negative rho (up, down):  1.683E-01 0.000E+00

     total cpu time spent up to now is        3.8 secs

     Self-consistent Calculation

     iteration #  1     ecut=    15.00 Ry     beta= 0.70
     Davidson diagonalization with overlap

---- Real-time Memory Report at c_bands before calling an iterative solver
           187 MiB given to the printing process from OS
             0 MiB allocation reported by mallinfo(arena+hblkhd)
           472 MiB available memory on the node where the printing process lives
------------------
     ethr =  1.00E-06,  avg # of iterations =  7.0

     negative rho (up, down):  1.794E-01 0.000E+00

     total cpu time spent up to now is        4.3 secs

     total energy              =      -2.29817957 Ry
     estimated scf accuracy    <       0.00106589 Ry

     iteration #  2     ecut=    15.00 Ry     beta= 0.70
     Davidson diagonalization with overlap

---- Real-time Memory Report at c_bands before calling an iterative solver
           187 MiB given to the printing process from OS
             0 MiB allocation reported by mallinfo(arena+hblkhd)
           415 MiB available memory on the node where the printing process lives
------------------
     ethr =  5.33E-05,  avg # of iterations =  1.0

     negative rho (up, down):  1.824E-01 0.000E+00

     total cpu time spent up to now is        4.6 secs

     total energy              =      -2.29653255 Ry
     estimated scf accuracy    <       0.00001674 Ry

     iteration #  3     ecut=    15.00 Ry     beta= 0.70
     Davidson diagonalization with overlap

---- Real-time Memory Report at c_bands before calling an iterative solver
           187 MiB given to the printing process from OS
             0 MiB allocation reported by mallinfo(arena+hblkhd)
           408 MiB available memory on the node where the printing process lives
------------------
     ethr =  8.37E-07,  avg # of iterations =  5.0

     negative rho (up, down):  1.829E-01 0.000E+00

     total cpu time spent up to now is        5.0 secs

     total energy              =      -2.29625106 Ry
     estimated scf accuracy    <       0.00000062 Ry

     iteration #  4     ecut=    15.00 Ry     beta= 0.70
     Davidson diagonalization with overlap

---- Real-time Memory Report at c_bands before calling an iterative solver
           187 MiB given to the printing process from OS
             0 MiB allocation reported by mallinfo(arena+hblkhd)
           402 MiB available memory on the node where the printing process lives
------------------
     ethr =  3.11E-08,  avg # of iterations =  2.0

     negative rho (up, down):  1.830E-01 0.000E+00

     total cpu time spent up to now is        5.4 secs

     total energy              =      -2.29621534 Ry
     estimated scf accuracy    <       0.00000013 Ry

     iteration #  5     ecut=    15.00 Ry     beta= 0.70
     Davidson diagonalization with overlap

---- Real-time Memory Report at c_bands before calling an iterative solver
           187 MiB given to the printing process from OS
             0 MiB allocation reported by mallinfo(arena+hblkhd)
           395 MiB available memory on the node where the printing process lives
------------------
     ethr =  6.35E-09,  avg # of iterations =  3.0

     negative rho (up, down):  1.830E-01 0.000E+00

     total cpu time spent up to now is        5.8 secs

     total energy              =      -2.29622897 Ry
     estimated scf accuracy    <       0.00000002 Ry

     iteration #  6     ecut=    15.00 Ry     beta= 0.70
     Davidson diagonalization with overlap

---- Real-time Memory Report at c_bands before calling an iterative solver
           187 MiB given to the printing process from OS
             0 MiB allocation reported by mallinfo(arena+hblkhd)
           389 MiB available memory on the node where the printing process lives
------------------
     ethr =  7.60E-10,  avg # of iterations =  3.0

     negative rho (up, down):  1.829E-01 0.000E+00

     total cpu time spent up to now is        6.1 secs

     End of self-consistent calculation

          k =-0.5000-0.5000-0.5000 ( 26344 PWs)   bands (ev):

   -10.8226  -1.4244

     occupation numbers 
     1.0000   0.0000

     highest occupied, lowest unoccupied level (ev):   -10.8226   -1.4244

!    total energy              =      -2.29622492 Ry
     estimated scf accuracy    <          7.7E-09 Ry

     The total energy is the sum of the following terms:
     one-electron contribution =      -4.28689370 Ry
     hartree contribution      =       2.30409995 Ry
     xc contribution           =      -1.41083928 Ry
     ewald contribution        =       1.09740810 Ry

     convergence has been achieved in   6 iterations

     Forces acting on atoms (cartesian axes, Ry/au):

     atom    1 type  1   force =     0.00880022    0.00000000    0.00000000
     atom    2 type  1   force =    -0.00880022    0.00000000    0.00000000
     The non-local contrib.  to forces
     atom    1 type  1   force =     0.15532757    0.00000000    0.00000000
     atom    2 type  1   force =    -0.16173297    0.00000000    0.00000000
     The ionic contribution  to forces
     atom    1 type  1   force =    -1.08802150   -0.00000000   -0.00000000
     atom    2 type  1   force =     1.08802150   -0.00000000   -0.00000000
     The local contribution  to forces
     atom    1 type  1   force =     0.93806522    0.00000000    0.00000000
     atom    2 type  1   force =    -0.93857259    0.00000000    0.00000000
     The core correction contribution to forces
     atom    1 type  1   force =     0.00000000    0.00000000    0.00000000
     atom    2 type  1   force =     0.00000000    0.00000000    0.00000000
     The Hubbard contrib.    to forces
     atom    1 type  1   force =     0.00000000    0.00000000    0.00000000
     atom    2 type  1   force =     0.00000000    0.00000000    0.00000000
     The SCF correction term to forces
     atom    1 type  1   force =    -0.00009208    0.00000000    0.00000000
     atom    2 type  1   force =    -0.00003716    0.00000000    0.00000000

     Total force =     0.012445     Total SCF correction =     0.000099
     Energy error            =      3.0E-03 Ry
     Gradient error          =      8.8E-03 Ry/Bohr

     number of scf cycles    =   2
     number of bfgs steps    =   1

     energy             old  =      -2.2992623574 Ry
     energy             new  =      -2.2962249235 Ry

     CASE: energy            _new > energy            _old

     new trust radius        =       0.0206644294 bohr
     new conv_thr            =       0.0000000100 Ry


ATOMIC_POSITIONS (angstrom)
H             0.0109351451        0.0000000000        0.0000000000
H             0.7690648549        0.0000000000        0.0000000000



     Writing config-only to output data dir ./.save/
     NEW-OLD atomic charge density approx. for the potential

     negative rho (up, down):  1.815E-01 0.000E+00

     total cpu time spent up to now is        6.5 secs

     Self-consistent Calculation

     iteration #  1     ecut=    15.00 Ry     beta= 0.70
     Davidson diagonalization with overlap

---- Real-time Memory Report at c_bands before calling an iterative solver
           187 MiB given to the printing process from OS
             0 MiB allocation reported by mallinfo(arena+hblkhd)
           470 MiB available memory on the node where the printing process lives
------------------
     ethr =  1.00E-06,  avg # of iterations =  7.0

     negative rho (up, down):  1.751E-01 0.000E+00

     total cpu time spent up to now is        7.0 secs

     total energy              =      -2.29860493 Ry
     estimated scf accuracy    <       0.00050910 Ry

     iteration #  2     ecut=    15.00 Ry     beta= 0.70
     Davidson diagonalization with overlap

---- Real-time Memory Report at c_bands before calling an iterative solver
           187 MiB given to the printing process from OS
             0 MiB allocation reported by mallinfo(arena+hblkhd)
           413 MiB available memory on the node where the printing process lives
------------------
     ethr =  2.55E-05,  avg # of iterations =  2.0

     negative rho (up, down):  1.738E-01 0.000E+00

     total cpu time spent up to now is        7.4 secs

     total energy              =      -2.29953413 Ry
     estimated scf accuracy    <       0.00000743 Ry

     iteration #  3     ecut=    15.00 Ry     beta= 0.70
     Davidson diagonalization with overlap

---- Real-time Memory Report at c_bands before calling an iterative solver
           187 MiB given to the printing process from OS
             0 MiB allocation reported by mallinfo(arena+hblkhd)
           407 MiB available memory on the node where the printing process lives
------------------
     ethr =  3.72E-07,  avg # of iterations =  4.0

     negative rho (up, down):  1.740E-01 0.000E+00

     total cpu time spent up to now is        7.8 secs

     total energy              =      -2.29942952 Ry
     estimated scf accuracy    <       0.00000189 Ry

     iteration #  4     ecut=    15.00 Ry     beta= 0.70
     Davidson diagonalization with overlap

---- Real-time Memory Report at c_bands before calling an iterative solver
           187 MiB given to the printing process from OS
             0 MiB allocation reported by mallinfo(arena+hblkhd)
           400 MiB available memory on the node where the printing process lives
------------------
     ethr =  9.46E-08,  avg # of iterations =  3.0

     negative rho (up, down):  1.738E-01 0.000E+00

     total cpu time spent up to now is        8.2 secs

     total energy              =      -2.29952073 Ry
     estimated scf accuracy    <       0.00000027 Ry

     iteration #  5     ecut=    15.00 Ry     beta= 0.70
     Davidson diagonalization with overlap

---- Real-time Memory Report at c_bands before calling an iterative solver
           187 MiB given to the printing process from OS
             0 MiB allocation reported by mallinfo(arena+hblkhd)
           394 MiB available memory on the node where the printing process lives
------------------
     ethr =  1.37E-08,  avg # of iterations =  3.0

     negative rho (up, down):  1.738E-01 0.000E+00

     total cpu time spent up to now is        8.6 secs

     total energy              =      -2.29950448 Ry
     estimated scf accuracy    <       0.00000002 Ry

     iteration #  6     ecut=    15.00 Ry     beta= 0.70
     Davidson diagonalization with overlap

---- Real-time Memory Report at c_bands before calling an iterative solver
           187 MiB given to the printing process from OS
             0 MiB allocation reported by mallinfo(arena+hblkhd)
           387 MiB available memory on the node where the printing process lives
------------------
     ethr =  1.07E-09,  avg # of iterations =  4.0

     negative rho (up, down):  1.738E-01 0.000E+00

     total cpu time spent up to now is        8.9 secs

     End of self-consistent calculation

          k =-0.5000-0.5000-0.5000 ( 26344 PWs)   bands (ev):

   -10.6120  -1.4655

     occupation numbers 
     1.0000   0.0000

     highest occupied, lowest unoccupied level (ev):   -10.6120   -1.4655

!    total energy              =      -2.29956274 Ry
     estimated scf accuracy    <          6.7E-09 Ry

     The total energy is the sum of the following terms:
     one-electron contribution =      -4.17997039 Ry
     hartree contribution      =       2.24646741 Ry
     xc contribution           =      -1.38407996 Ry
     ewald contribution        =       1.01802021 Ry

     convergence has been achieved in   6 iterations

     Forces acting on atoms (cartesian axes, Ry/au):

     atom    1 type  1   force =     0.04368876    0.00000000    0.00000000
     atom    2 type  1   force =    -0.04368876    0.00000000    0.00000000
     The non-local contrib.  to forces
     atom    1 type  1   force =     0.11741452    0.00000000    0.00000000
     atom    2 type  1   force =    -0.12275527    0.00000000    0.00000000
     The ionic contribution  to forces
     atom    1 type  1   force =    -0.97397034   -0.00000000   -0.00000000
     atom    2 type  1   force =     0.97397034   -0.00000000   -0.00000000
     The local contribution  to forces
     atom    1 type  1   force =     0.89769490    0.00000000    0.00000000
     atom    2 type  1   force =    -0.89723347    0.00000000    0.00000000
     The core correction contribution to forces
     atom    1 type  1   force =     0.00000000    0.00000000    0.00000000
     atom    2 type  1   force =     0.00000000    0.00000000    0.00000000
     The Hubbard contrib.    to forces
     atom    1 type  1   force =     0.00000000    0.00000000    0.00000000
     atom    2 type  1   force =     0.00000000    0.00000000    0.00000000
     The SCF correction term to forces
     atom    1 type  1   force =     0.00083224    0.00000000   -0.00000000
     atom    2 type  1   force =     0.00061218    0.00000000   -0.00000000

     Total force =     0.061785     Total SCF correction =     0.001033
     Energy error            =      3.0E-04 Ry
     Gradient error          =      4.4E-02 Ry/Bohr

     number of scf cycles    =   3
     number of bfgs steps    =   1

     energy             old  =      -2.2992623574 Ry
     energy             new  =      -2.2995627377 Ry

     CASE: energy            _new < energy            _old

     new trust radius        =       0.0309966441 bohr
     new conv_thr            =       0.0000000003 Ry


ATOMIC_POSITIONS (angstrom)
H             0.0273378628        0.0000000000        0.0000000000
H             0.7526621372        0.0000000000        0.0000000000



     Writing config-only to output data dir ./.save/
     NEW-OLD atomic charge density approx. for the potential

     negative rho (up, down):  1.734E-01 0.000E+00

     total cpu time spent up to now is        9.3 secs

     Self-consistent Calculation

     iteration #  1     ecut=    15.00 Ry     beta= 0.70
     Davidson diagonalization with overlap

---- Real-time Memory Report at c_bands before calling an iterative solver
           187 MiB given to the printing process from OS
             0 MiB allocation reported by mallinfo(arena+hblkhd)
           470 MiB available memory on the node where the printing process lives
------------------
     ethr =  1.00E-06,  avg # of iterations =  4.0

     negative rho (up, down):  1.792E-01 0.000E+00

     total cpu time spent up to now is        9.8 secs

     total energy              =      -2.29806161 Ry
     estimated scf accuracy    <       0.00031399 Ry

     iteration #  2     ecut=    15.00 Ry     beta= 0.70
     Davidson diagonalization with overlap

---- Real-time Memory Report at c_bands before calling an iterative solver
           187 MiB given to the printing process from OS
             0 MiB allocation reported by mallinfo(arena+hblkhd)
           413 MiB available memory on the node where the printing process lives
------------------
     ethr =  1.57E-05,  avg # of iterations =  2.0

     negative rho (up, down):  1.804E-01 0.000E+00

     total cpu time spent up to now is       10.1 secs

     total energy              =      -2.29745379 Ry
     estimated scf accuracy    <       0.00000326 Ry

     iteration #  3     ecut=    15.00 Ry     beta= 0.70
     Davidson diagonalization with overlap

---- Real-time Memory Report at c_bands before calling an iterative solver
           187 MiB given to the printing process from OS
             0 MiB allocation reported by mallinfo(arena+hblkhd)
           407 MiB available memory on the node where the printing process lives
------------------
     ethr =  1.63E-07,  avg # of iterations =  5.0

     negative rho (up, down):  1.808E-01 0.000E+00

     total cpu time spent up to now is       10.5 secs

     total energy              =      -2.29727417 Ry
     estimated scf accuracy    <       0.00000011 Ry

     iteration #  4     ecut=    15.00 Ry     beta= 0.70
     Davidson diagonalization with overlap

---- Real-time Memory Report at c_bands before calling an iterative solver
           187 MiB given to the printing process from OS
             0 MiB allocation reported by mallinfo(arena+hblkhd)
           400 MiB available memory on the node where the printing process lives
------------------
     ethr =  5.37E-09,  avg # of iterations =  3.0

     negative rho (up, down):  1.808E-01 0.000E+00

     total cpu time spent up to now is       10.9 secs

     total energy              =      -2.29729070 Ry
     estimated scf accuracy    <       0.00000004 Ry

     iteration #  5     ecut=    15.00 Ry     beta= 0.70
     Davidson diagonalization with overlap

---- Real-time Memory Report at c_bands before calling an iterative solver
           187 MiB given to the printing process from OS
             0 MiB allocation reported by mallinfo(arena+hblkhd)
           394 MiB available memory on the node where the printing process lives
------------------
     ethr =  2.17E-09,  avg # of iterations =  3.0

     negative rho (up, down):  1.808E-01 0.000E+00

     total cpu time spent up to now is       11.3 secs

     total energy              =      -2.29728198 Ry
     estimated scf accuracy    <       0.00000002 Ry

     iteration #  6     ecut=    15.00 Ry     beta= 0.70
     Davidson diagonalization with overlap

---- Real-time Memory Report at c_bands before calling an iterative solver
           187 MiB given to the printing process from OS
             0 MiB allocation reported by mallinfo(arena+hblkhd)
           387 MiB available memory on the node where the printing process lives
------------------
     ethr =  7.76E-10,  avg # of iterations =  4.0

     negative rho (up, down):  1.808E-01 0.000E+00

     total cpu time spent up to now is       11.7 secs

     total energy              =      -2.29727175 Ry
     estimated scf accuracy    <       0.00000002 Ry

     iteration #  7     ecut=    15.00 Ry     beta= 0.70
     Davidson diagonalization with overlap

---- Real-time Memory Report at c_bands before calling an iterative solver
           188 MiB given to the printing process from OS
             0 MiB allocation reported by mallinfo(arena+hblkhd)
           381 MiB available memory on the node where the printing process lives
------------------
     ethr =  7.76E-10,  avg # of iterations =  4.0

     negative rho (up, down):  1.808E-01 0.000E+00

     total cpu time spent up to now is       12.1 secs

     total energy              =      -2.29725183 Ry
     estimated scf accuracy    <       0.00000013 Ry

     iteration #  8     ecut=    15.00 Ry     beta= 0.70
     Davidson diagonalization with overlap

---- Real-time Memory Report at c_bands before calling an iterative solver
           195 MiB given to the printing process from OS
             0 MiB allocation reported by mallinfo(arena+hblkhd)
           375 MiB available memory on the node where the printing process lives
------------------
     ethr =  7.76E-10,  avg # of iterations =  4.0

     negative rho (up, down):  1.808E-01 0.000E+00

     total cpu time spent up to now is       12.5 secs

     total energy              =      -2.29726942 Ry
     estimated scf accuracy    <       0.00000029 Ry

     iteration #  9     ecut=    15.00 Ry     beta= 0.70
     Davidson diagonalization with overlap

---- Real-time Memory Report at c_bands before calling an iterative solver
           201 MiB given to the printing process from OS
             0 MiB allocation reported by mallinfo(arena+hblkhd)
           368 MiB available memory on the node where the printing process lives
------------------
     ethr =  7.76E-10,  avg # of iterations =  3.0

     negative rho (up, down):  1.808E-01 0.000E+00

     total cpu time spent up to now is       12.9 secs

     total energy              =      -2.29727068 Ry
     estimated scf accuracy    <       0.00000017 Ry

     iteration # 10     ecut=    15.00 Ry     beta= 0.70
     Davidson diagonalization with overlap

---- Real-time Memory Report at c_bands before calling an iterative solver
           207 MiB given to the printing process from OS
             0 MiB allocation reported by mallinfo(arena+hblkhd)
           362 MiB available memory on the node where the printing process lives
------------------
     ethr =  7.76E-10,  avg # of iterations =  4.0

     negative rho (up, down):  1.808E-01 0.000E+00

     total cpu time spent up to now is       13.3 secs

     total energy              =      -2.29726783 Ry
     estimated scf accuracy    <       0.00000005 Ry

     iteration # 11     ecut=    15.00 Ry     beta= 0.70
     Davidson diagonalization with overlap

---- Real-time Memory Report at c_bands before calling an iterative solver
           207 MiB given to the printing process from OS
             0 MiB allocation reported by mallinfo(arena+hblkhd)
           362 MiB available memory on the node where the printing process lives
------------------
     ethr =  7.76E-10,  avg # of iterations =  4.0

     negative rho (up, down):  1.808E-01 0.000E+00

     total cpu time spent up to now is       13.8 secs

     total energy              =      -2.29727130 Ry
     estimated scf accuracy    <       0.00000021 Ry

     iteration # 12     ecut=    15.00 Ry     beta= 0.70
     Davidson diagonalization with overlap

---- Real-time Memory Report at c_bands before calling an iterative solver
           207 MiB given to the printing process from OS
             0 MiB allocation reported by mallinfo(arena+hblkhd)
           362 MiB available memory on the node where the printing process lives
------------------
     ethr =  7.76E-10,  avg # of iterations =  4.0

     negative rho (up, down):  1.808E-01 0.000E+00

     total cpu time spent up to now is       14.2 secs

     total energy              =      -2.29727264 Ry
     estimated scf accuracy    <       0.00000005 Ry

     iteration # 13     ecut=    15.00 Ry     beta= 0.70
     Davidson diagonalization with overlap

---- Real-time Memory Report at c_bands before calling an iterative solver
           207 MiB given to the printing process from OS
             0 MiB allocation reported by mallinfo(arena+hblkhd)
           362 MiB available memory on the node where the printing process lives
------------------
     ethr =  7.76E-10,  avg # of iterations =  4.0

     negative rho (up, down):  1.808E-01 0.000E+00

     total cpu time spent up to now is       14.6 secs

     total energy              =      -2.29727348 Ry
     estimated scf accuracy    <       0.00000020 Ry

     iteration # 14     ecut=    15.00 Ry     beta= 0.70
     Davidson diagonalization with overlap

---- Real-time Memory Report at c_bands before calling an iterative solver
           207 MiB given to the printing process from OS
             0 MiB allocation reported by mallinfo(arena+hblkhd)
           362 MiB available memory on the node where the printing process lives
------------------
     ethr =  7.76E-10,  avg # of iterations =  4.0

     negative rho (up, down):  1.808E-01 0.000E+00

     total cpu time spent up to now is       15.0 secs

     total energy              =      -2.29728553 Ry
     estimated scf accuracy    <       0.00000004 Ry

     iteration # 15     ecut=    15.00 Ry     beta= 0.70
     Davidson diagonalization with overlap

---- Real-time Memory Report at c_bands before calling an iterative solver
           207 MiB given to the printing process from OS
             0 MiB allocation reported by mallinfo(arena+hblkhd)
           362 MiB available memory on the node where the printing process lives
------------------
     ethr =  7.76E-10,  avg # of iterations =  4.0

     negative rho (up, down):  1.808E-01 0.000E+00

     total cpu time spent up to now is       15.4 secs

     total energy              =      -2.29729669 Ry
     estimated scf accuracy    <       0.00000011 Ry

     iteration # 16     ecut=    15.00 Ry     beta= 0.70
     Davidson diagonalization with overlap

---- Real-time Memory Report at c_bands before calling an iterative solver
           207 MiB given to the printing process from OS
             0 MiB allocation reported by mallinfo(arena+hblkhd)
           362 MiB available memory on the node where the printing process lives
------------------
     ethr =  7.76E-10,  avg # of iterations =  4.0

     negative rho (up, down):  1.808E-01 0.000E+00

     total cpu time spent up to now is       15.8 secs

     total energy              =      -2.29725459 Ry
     estimated scf accuracy    <       0.00000003 Ry

     iteration # 17     ecut=    15.00 Ry     beta= 0.70
     Davidson diagonalization with overlap

---- Real-time Memory Report at c_bands before calling an iterative solver
           207 MiB given to the printing process from OS
             0 MiB allocation reported by mallinfo(arena+hblkhd)
           362 MiB available memory on the node where the printing process lives
------------------
     ethr =  7.76E-10,  avg # of iterations =  4.0

     negative rho (up, down):  1.808E-01 0.000E+00

     total cpu time spent up to now is       16.2 secs

     total energy              =      -2.29725743 Ry
     estimated scf accuracy    <       0.00000004 Ry

     iteration # 18     ecut=    15.00 Ry     beta= 0.70
     Davidson diagonalization with overlap

---- Real-time Memory Report at c_bands before calling an iterative solver
           207 MiB given to the printing process from OS
             0 MiB allocation reported by mallinfo(arena+hblkhd)
           362 MiB available memory on the node where the printing process lives
------------------
     ethr =  7.76E-10,  avg # of iterations =  2.0

     negative rho (up, down):  1.808E-01 0.000E+00

     total cpu time spent up to now is       16.6 secs

     total energy              =      -2.29725945 Ry
     estimated scf accuracy    <       0.00000004 Ry

     iteration # 19     ecut=    15.00 Ry     beta= 0.70
     Davidson diagonalization with overlap

---- Real-time Memory Report at c_bands before calling an iterative solver
           207 MiB given to the printing process from OS
             0 MiB allocation reported by mallinfo(arena+hblkhd)
           362 MiB available memory on the node where the printing process lives
------------------
     ethr =  7.76E-10,  avg # of iterations =  3.0

     negative rho (up, down):  1.808E-01 0.000E+00

     total cpu time spent up to now is       17.0 secs

     total energy              =      -2.29724985 Ry
     estimated scf accuracy    <       0.00000007 Ry

     iteration # 20     ecut=    15.00 Ry     beta= 0.70
     Davidson diagonalization with overlap

---- Real-time Memory Report at c_bands before calling an iterative solver
           207 MiB given to the printing process from OS
             0 MiB allocation reported by mallinfo(arena+hblkhd)
           362 MiB available memory on the node where the printing process lives
------------------
     ethr =  7.76E-10,  avg # of iterations =  4.0

     negative rho (up, down):  1.809E-01 0.000E+00

     total cpu time spent up to now is       17.4 secs

     total energy              =      -2.29723785 Ry
     estimated scf accuracy    <       0.00000002 Ry

     iteration # 21     ecut=    15.00 Ry     beta= 0.70
     Davidson diagonalization with overlap

---- Real-time Memory Report at c_bands before calling an iterative solver
           207 MiB given to the printing process from OS
             0 MiB allocation reported by mallinfo(arena+hblkhd)
           362 MiB available memory on the node where the printing process lives
------------------
     ethr =  7.76E-10,  avg # of iterations =  3.0

     negative rho (up, down):  1.809E-01 0.000E+00

     total cpu time spent up to now is       17.8 secs

     total energy              =      -2.29725041 Ry
     estimated scf accuracy    <          5.3E-09 Ry

     iteration # 22     ecut=    15.00 Ry     beta= 0.70
     Davidson diagonalization with overlap

---- Real-time Memory Report at c_bands before calling an iterative solver
           207 MiB given to the printing process from OS
             0 MiB allocation reported by mallinfo(arena+hblkhd)
           362 MiB available memory on the node where the printing process lives
------------------
     ethr =  2.64E-10,  avg # of iterations =  3.0

     negative rho (up, down):  1.809E-01 0.000E+00

     total cpu time spent up to now is       18.2 secs

     total energy              =      -2.29724762 Ry
     estimated scf accuracy    <       0.00000002 Ry

     iteration # 23     ecut=    15.00 Ry     beta= 0.70
     Davidson diagonalization with overlap

---- Real-time Memory Report at c_bands before calling an iterative solver
           207 MiB given to the printing process from OS
             0 MiB allocation reported by mallinfo(arena+hblkhd)
           362 MiB available memory on the node where the printing process lives
------------------
     ethr =  2.64E-10,  avg # of iterations =  3.0

     negative rho (up, down):  1.808E-01 0.000E+00

     total cpu time spent up to now is       18.6 secs

     total energy              =      -2.29724994 Ry
     estimated scf accuracy    <          7.1E-09 Ry

     iteration # 24     ecut=    15.00 Ry     beta= 0.70
     Davidson diagonalization with overlap

---- Real-time Memory Report at c_bands before calling an iterative solver
           207 MiB given to the printing process from OS
             0 MiB allocation reported by mallinfo(arena+hblkhd)
           362 MiB available memory on the node where the printing process lives
------------------
     ethr =  2.64E-10,  avg # of iterations =  3.0

     negative rho (up, down):  1.808E-01 0.000E+00

     total cpu time spent up to now is       19.0 secs

     total energy              =      -2.29724582 Ry
     estimated scf accuracy    <          6.3E-09 Ry

     iteration # 25     ecut=    15.00 Ry     beta= 0.70
     Davidson diagonalization with overlap

---- Real-time Memory Report at c_bands before calling an iterative solver
           207 MiB given to the printing process from OS
             0 MiB allocation reported by mallinfo(arena+hblkhd)
           362 MiB available memory on the node where the printing process lives
------------------
     ethr =  2.64E-10,  avg # of iterations =  4.0

     negative rho (up, down):  1.808E-01 0.000E+00

     total cpu time spent up to now is       19.4 secs

     total energy              =      -2.29728189 Ry
     estimated scf accuracy    <       0.00000007 Ry

     iteration # 26     ecut=    15.00 Ry     beta= 0.70
     Davidson diagonalization with overlap

---- Real-time Memory Report at c_bands before calling an iterative solver
           207 MiB given to the printing process from OS
             0 MiB allocation reported by mallinfo(arena+hblkhd)
           362 MiB available memory on the node where the printing process lives
------------------
     ethr =  2.64E-10,  avg # of iterations =  4.0

     negative rho (up, down):  1.808E-01 0.000E+00

     total cpu time spent up to now is       19.8 secs

     total energy              =      -2.29725891 Ry
     estimated scf accuracy    <       0.00000009 Ry

     iteration # 27     ecut=    15.00 Ry     beta= 0.70
     Davidson diagonalization with overlap

---- Real-time Memory Report at c_bands before calling an iterative solver
           207 MiB given to the printing process from OS
             0 MiB allocation reported by mallinfo(arena+hblkhd)
           362 MiB available memory on the node where the printing process lives
------------------
     ethr =  2.64E-10,  avg # of iterations =  4.0

     negative rho (up, down):  1.808E-01 0.000E+00

     total cpu time spent up to now is       20.3 secs

     total energy              =      -2.29725250 Ry
     estimated scf accuracy    <       0.00000002 Ry

     iteration # 28     ecut=    15.00 Ry     beta= 0.70
     Davidson diagonalization with overlap

---- Real-time Memory Report at c_bands before calling an iterative solver
           207 MiB given to the printing process from OS
             0 MiB allocation reported by mallinfo(arena+hblkhd)
           362 MiB available memory on the node where the printing process lives
------------------
     ethr =  2.64E-10,  avg # of iterations =  4.0

     negative rho (up, down):  1.808E-01 0.000E+00

     total cpu time spent up to now is       20.7 secs

     total energy              =      -2.29726429 Ry
     estimated scf accuracy    <       0.00000003 Ry

     iteration # 29     ecut=    15.00 Ry     beta= 0.70
     Davidson diagonalization with overlap

---- Real-time Memory Report at c_bands before calling an iterative solver
           207 MiB given to the printing process from OS
             0 MiB allocation reported by mallinfo(arena+hblkhd)
           362 MiB available memory on the node where the printing process lives
------------------
     ethr =  2.64E-10,  avg # of iterations =  4.0

     negative rho (up, down):  1.808E-01 0.000E+00

     total cpu time spent up to now is       21.1 secs

     total energy              =      -2.29724641 Ry
     estimated scf accuracy    <       0.00000007 Ry

     iteration # 30     ecut=    15.00 Ry     beta= 0.70
     Davidson diagonalization with overlap

---- Real-time Memory Report at c_bands before calling an iterative solver
           207 MiB given to the printing process from OS
             0 MiB allocation reported by mallinfo(arena+hblkhd)
           362 MiB available memory on the node where the printing process lives
------------------
     ethr =  2.64E-10,  avg # of iterations =  4.0

     negative rho (up, down):  1.808E-01 0.000E+00

     total cpu time spent up to now is       21.5 secs

     total energy              =      -2.29726873 Ry
     estimated scf accuracy    <       0.00000001 Ry

     iteration # 31     ecut=    15.00 Ry     beta= 0.70
     Davidson diagonalization with overlap

---- Real-time Memory Report at c_bands before calling an iterative solver
           207 MiB given to the printing process from OS
             0 MiB allocation reported by mallinfo(arena+hblkhd)
           362 MiB available memory on the node where the printing process lives
------------------
     ethr =  2.64E-10,  avg # of iterations =  4.0

     negative rho (up, down):  1.808E-01 0.000E+00

     total cpu time spent up to now is       21.9 secs

     total energy              =      -2.29725357 Ry
     estimated scf accuracy    <       0.00000002 Ry

     iteration # 32     ecut=    15.00 Ry     beta= 0.70
     Davidson diagonalization with overlap

---- Real-time Memory Report at c_bands before calling an iterative solver
           207 MiB given to the printing process from OS
             0 MiB allocation reported by mallinfo(arena+hblkhd)
           362 MiB available memory on the node where the printing process lives
------------------
     ethr =  2.64E-10,  avg # of iterations =  4.0

     negative rho (up, down):  1.808E-01 0.000E+00

     total cpu time spent up to now is       22.3 secs

     total energy              =      -2.29727364 Ry
     estimated scf accuracy    <       0.00000001 Ry

     iteration # 33     ecut=    15.00 Ry     beta= 0.70
     Davidson diagonalization with overlap

---- Real-time Memory Report at c_bands before calling an iterative solver
           207 MiB given to the printing process from OS
             0 MiB allocation reported by mallinfo(arena+hblkhd)
           362 MiB available memory on the node where the printing process lives
------------------
     ethr =  2.64E-10,  avg # of iterations =  4.0

     negative rho (up, down):  1.808E-01 0.000E+00

     total cpu time spent up to now is       22.7 secs

     total energy              =      -2.29725547 Ry
     estimated scf accuracy    <          5.9E-09 Ry

     iteration # 34     ecut=    15.00 Ry     beta= 0.70
     Davidson diagonalization with overlap

---- Real-time Memory Report at c_bands before calling an iterative solver
           207 MiB given to the printing process from OS
             0 MiB allocation reported by mallinfo(arena+hblkhd)
           361 MiB available memory on the node where the printing process lives
------------------
     ethr =  2.64E-10,  avg # of iterations =  4.0

     negative rho (up, down):  1.808E-01 0.000E+00

     total cpu time spent up to now is       23.2 secs

     total energy              =      -2.29725317 Ry
     estimated scf accuracy    <       0.00000002 Ry

     iteration # 35     ecut=    15.00 Ry     beta= 0.70
     Davidson diagonalization with overlap

---- Real-time Memory Report at c_bands before calling an iterative solver
           207 MiB given to the printing process from OS
             0 MiB allocation reported by mallinfo(arena+hblkhd)
           361 MiB available memory on the node where the printing process lives
------------------
     ethr =  2.64E-10,  avg # of iterations =  4.0

     negative rho (up, down):  1.808E-01 0.000E+00

     total cpu time spent up to now is       23.6 secs

     total energy              =      -2.29724800 Ry
     estimated scf accuracy    <       0.00000002 Ry

     iteration # 36     ecut=    15.00 Ry     beta= 0.70
     Davidson diagonalization with overlap

---- Real-time Memory Report at c_bands before calling an iterative solver
           207 MiB given to the printing process from OS
             0 MiB allocation reported by mallinfo(arena+hblkhd)
           361 MiB available memory on the node where the printing process lives
------------------
     ethr =  2.64E-10,  avg # of iterations =  4.0

     negative rho (up, down):  1.809E-01 0.000E+00

     total cpu time spent up to now is       24.0 secs

     total energy              =      -2.29725009 Ry
     estimated scf accuracy    <       0.00000007 Ry

     iteration # 37     ecut=    15.00 Ry     beta= 0.70
     Davidson diagonalization with overlap

---- Real-time Memory Report at c_bands before calling an iterative solver
           207 MiB given to the printing process from OS
             0 MiB allocation reported by mallinfo(arena+hblkhd)
           361 MiB available memory on the node where the printing process lives
------------------
     ethr =  2.64E-10,  avg # of iterations =  4.0

     negative rho (up, down):  1.809E-01 0.000E+00

     total cpu time spent up to now is       24.4 secs

     total energy              =      -2.29724704 Ry
     estimated scf accuracy    <       0.00000004 Ry

     iteration # 38     ecut=    15.00 Ry     beta= 0.70
     Davidson diagonalization with overlap

---- Real-time Memory Report at c_bands before calling an iterative solver
           207 MiB given to the printing process from OS
             0 MiB allocation reported by mallinfo(arena+hblkhd)
           361 MiB available memory on the node where the printing process lives
------------------
     ethr =  2.64E-10,  avg # of iterations =  4.0

     negative rho (up, down):  1.809E-01 0.000E+00

     total cpu time spent up to now is       24.9 secs

     total energy              =      -2.29725986 Ry
     estimated scf accuracy    <       0.00000007 Ry

     iteration # 39     ecut=    15.00 Ry     beta= 0.70
     Davidson diagonalization with overlap

---- Real-time Memory Report at c_bands before calling an iterative solver
           207 MiB given to the printing process from OS
             0 MiB allocation reported by mallinfo(arena+hblkhd)
           361 MiB available memory on the node where the printing process lives
------------------
     ethr =  2.64E-10,  avg # of iterations =  3.0

     negative rho (up, down):  1.809E-01 0.000E+00

     total cpu time spent up to now is       25.3 secs

     total energy              =      -2.29723759 Ry
     estimated scf accuracy    <       0.00000005 Ry

     iteration # 40     ecut=    15.00 Ry     beta= 0.70
     Davidson diagonalization with overlap

---- Real-time Memory Report at c_bands before calling an iterative solver
           207 MiB given to the printing process from OS
             0 MiB allocation reported by mallinfo(arena+hblkhd)
           361 MiB available memory on the node where the printing process lives
------------------
     ethr =  2.64E-10,  avg # of iterations =  4.0

     negative rho (up, down):  1.809E-01 0.000E+00

     total cpu time spent up to now is       25.7 secs

     total energy              =      -2.29723340 Ry
     estimated scf accuracy    <       0.00000002 Ry

     iteration # 41     ecut=    15.00 Ry     beta= 0.70
     Davidson diagonalization with overlap

---- Real-time Memory Report at c_bands before calling an iterative solver
           207 MiB given to the printing process from OS
             0 MiB allocation reported by mallinfo(arena+hblkhd)
           361 MiB available memory on the node where the printing process lives
------------------
     ethr =  2.64E-10,  avg # of iterations =  4.0

     negative rho (up, down):  1.809E-01 0.000E+00

     total cpu time spent up to now is       26.1 secs

     total energy              =      -2.29723725 Ry
     estimated scf accuracy    <       0.00000002 Ry

     iteration # 42     ecut=    15.00 Ry     beta= 0.70
     Davidson diagonalization with overlap

---- Real-time Memory Report at c_bands before calling an iterative solver
           207 MiB given to the printing process from OS
             0 MiB allocation reported by mallinfo(arena+hblkhd)
           361 MiB available memory on the node where the printing process lives
------------------
     ethr =  2.64E-10,  avg # of iterations =  4.0

     negative rho (up, down):  1.809E-01 0.000E+00

     total cpu time spent up to now is       26.5 secs

     total energy              =      -2.29723796 Ry
     estimated scf accuracy    <       0.00000005 Ry

     iteration # 43     ecut=    15.00 Ry     beta= 0.70
     Davidson diagonalization with overlap

---- Real-time Memory Report at c_bands before calling an iterative solver
           207 MiB given to the printing process from OS
             0 MiB allocation reported by mallinfo(arena+hblkhd)
           361 MiB available memory on the node where the printing process lives
------------------
     ethr =  2.64E-10,  avg # of iterations =  4.0

     negative rho (up, down):  1.808E-01 0.000E+00

     total cpu time spent up to now is       27.0 secs

     total energy              =      -2.29727416 Ry
     estimated scf accuracy    <       0.00000021 Ry

     iteration # 44     ecut=    15.00 Ry     beta= 0.70
     Davidson diagonalization with overlap

---- Real-time Memory Report at c_bands before calling an iterative solver
           207 MiB given to the printing process from OS
             0 MiB allocation reported by mallinfo(arena+hblkhd)
           361 MiB available memory on the node where the printing process lives
------------------
     ethr =  2.64E-10,  avg # of iterations =  4.0

     negative rho (up, down):  1.809E-01 0.000E+00

     total cpu time spent up to now is       27.4 secs

     total energy              =      -2.29720128 Ry
     estimated scf accuracy    <       0.00000006 Ry

     iteration # 45     ecut=    15.00 Ry     beta= 0.70
     Davidson diagonalization with overlap

---- Real-time Memory Report at c_bands before calling an iterative solver
           207 MiB given to the printing process from OS
             0 MiB allocation reported by mallinfo(arena+hblkhd)
           361 MiB available memory on the node where the printing process lives
------------------
     ethr =  2.64E-10,  avg # of iterations =  4.0

     negative rho (up, down):  1.809E-01 0.000E+00

     total cpu time spent up to now is       27.8 secs

     total energy              =      -2.29724730 Ry
     estimated scf accuracy    <       0.00000012 Ry

     iteration # 46     ecut=    15.00 Ry     beta= 0.70
     Davidson diagonalization with overlap

---- Real-time Memory Report at c_bands before calling an iterative solver
           207 MiB given to the printing process from OS
             0 MiB allocation reported by mallinfo(arena+hblkhd)
           361 MiB available memory on the node where the printing process lives
------------------
     ethr =  2.64E-10,  avg # of iterations =  3.0

     negative rho (up, down):  1.809E-01 0.000E+00

     total cpu time spent up to now is       28.2 secs

     total energy              =      -2.29723359 Ry
     estimated scf accuracy    <       0.00000002 Ry

     iteration # 47     ecut=    15.00 Ry     beta= 0.70
     Davidson diagonalization with overlap

---- Real-time Memory Report at c_bands before calling an iterative solver
           207 MiB given to the printing process from OS
             0 MiB allocation reported by mallinfo(arena+hblkhd)
           361 MiB available memory on the node where the printing process lives
------------------
     ethr =  2.64E-10,  avg # of iterations =  4.0

     negative rho (up, down):  1.809E-01 0.000E+00

     total cpu time spent up to now is       28.6 secs

     total energy              =      -2.29721837 Ry
     estimated scf accuracy    <       0.00000003 Ry

     iteration # 48     ecut=    15.00 Ry     beta= 0.70
     Davidson diagonalization with overlap

---- Real-time Memory Report at c_bands before calling an iterative solver
           207 MiB given to the printing process from OS
             0 MiB allocation reported by mallinfo(arena+hblkhd)
           361 MiB available memory on the node where the printing process lives
------------------
     ethr =  2.64E-10,  avg # of iterations =  3.0

     negative rho (up, down):  1.809E-01 0.000E+00

     total cpu time spent up to now is       29.0 secs

     total energy              =      -2.29726046 Ry
     estimated scf accuracy    <       0.00000004 Ry

     iteration # 49     ecut=    15.00 Ry     beta= 0.70
     Davidson diagonalization with overlap

---- Real-time Memory Report at c_bands before calling an iterative solver
           207 MiB given to the printing process from OS
             0 MiB allocation reported by mallinfo(arena+hblkhd)
           361 MiB available memory on the node where the printing process lives
------------------
     ethr =  2.64E-10,  avg # of iterations =  4.0

     negative rho (up, down):  1.809E-01 0.000E+00

     total cpu time spent up to now is       29.4 secs

     total energy              =      -2.29723619 Ry
     estimated scf accuracy    <       0.00000008 Ry

     iteration # 50     ecut=    15.00 Ry     beta= 0.70
     Davidson diagonalization with overlap

---- Real-time Memory Report at c_bands before calling an iterative solver
           207 MiB given to the printing process from OS
             0 MiB allocation reported by mallinfo(arena+hblkhd)
           361 MiB available memory on the node where the printing process lives
------------------
     ethr =  2.64E-10,  avg # of iterations =  5.0

     negative rho (up, down):  1.809E-01 0.000E+00

     total cpu time spent up to now is       29.8 secs

     total energy              =      -2.29724719 Ry
     estimated scf accuracy    <       0.00000018 Ry

     iteration # 51     ecut=    15.00 Ry     beta= 0.70
     Davidson diagonalization with overlap

---- Real-time Memory Report at c_bands before calling an iterative solver
           207 MiB given to the printing process from OS
             0 MiB allocation reported by mallinfo(arena+hblkhd)
           361 MiB available memory on the node where the printing process lives
------------------
     ethr =  2.64E-10,  avg # of iterations =  4.0

     negative rho (up, down):  1.808E-01 0.000E+00

     total cpu time spent up to now is       30.2 secs

     total energy              =      -2.29725211 Ry
     estimated scf accuracy    <       0.00000007 Ry

     iteration # 52     ecut=    15.00 Ry     beta= 0.70
     Davidson diagonalization with overlap

---- Real-time Memory Report at c_bands before calling an iterative solver
           207 MiB given to the printing process from OS
             0 MiB allocation reported by mallinfo(arena+hblkhd)
           361 MiB available memory on the node where the printing process lives
------------------
     ethr =  2.64E-10,  avg # of iterations =  3.0

     negative rho (up, down):  1.808E-01 0.000E+00

     total cpu time spent up to now is       30.6 secs

     total energy              =      -2.29725485 Ry
     estimated scf accuracy    <       0.00000003 Ry

     iteration # 53     ecut=    15.00 Ry     beta= 0.70
     Davidson diagonalization with overlap

---- Real-time Memory Report at c_bands before calling an iterative solver
           207 MiB given to the printing process from OS
             0 MiB allocation reported by mallinfo(arena+hblkhd)
           361 MiB available memory on the node where the printing process lives
------------------
     ethr =  2.64E-10,  avg # of iterations =  3.0

     negative rho (up, down):  1.809E-01 0.000E+00

     total cpu time spent up to now is       31.0 secs

     total energy              =      -2.29723948 Ry
     estimated scf accuracy    <       0.00000004 Ry

     iteration # 54     ecut=    15.00 Ry     beta= 0.70
     Davidson diagonalization with overlap

---- Real-time Memory Report at c_bands before calling an iterative solver
           207 MiB given to the printing process from OS
             0 MiB allocation reported by mallinfo(arena+hblkhd)
           361 MiB available memory on the node where the printing process lives
------------------
     ethr =  2.64E-10,  avg # of iterations =  4.0

     negative rho (up, down):  1.809E-01 0.000E+00

     total cpu time spent up to now is       31.5 secs

     total energy              =      -2.29724077 Ry
     estimated scf accuracy    <          3.6E-09 Ry

     iteration # 55     ecut=    15.00 Ry     beta= 0.70
     Davidson diagonalization with overlap

---- Real-time Memory Report at c_bands before calling an iterative solver
           207 MiB given to the printing process from OS
             0 MiB allocation reported by mallinfo(arena+hblkhd)
           361 MiB available memory on the node where the printing process lives
------------------
     ethr =  1.80E-10,  avg # of iterations =  3.0

     negative rho (up, down):  1.809E-01 0.000E+00

     total cpu time spent up to now is       31.9 secs

     total energy              =      -2.29723994 Ry
     estimated scf accuracy    <          2.7E-09 Ry

     iteration # 56     ecut=    15.00 Ry     beta= 0.70
     Davidson diagonalization with overlap

---- Real-time Memory Report at c_bands before calling an iterative solver
           207 MiB given to the printing process from OS
             0 MiB allocation reported by mallinfo(arena+hblkhd)
           361 MiB available memory on the node where the printing process lives
------------------
     ethr =  1.37E-10,  avg # of iterations =  4.0

     negative rho (up, down):  1.808E-01 0.000E+00

     total cpu time spent up to now is       32.3 secs

     total energy              =      -2.29729055 Ry
     estimated scf accuracy    <          3.9E-09 Ry

     iteration # 57     ecut=    15.00 Ry     beta= 0.70
     Davidson diagonalization with overlap

---- Real-time Memory Report at c_bands before calling an iterative solver
           207 MiB given to the printing process from OS
             0 MiB allocation reported by mallinfo(arena+hblkhd)
           361 MiB available memory on the node where the printing process lives
------------------
     ethr =  1.37E-10,  avg # of iterations =  4.0

     negative rho (up, down):  1.808E-01 0.000E+00

     total cpu time spent up to now is       32.7 secs

     total energy              =      -2.29728125 Ry
     estimated scf accuracy    <       0.00000028 Ry

     iteration # 58     ecut=    15.00 Ry     beta= 0.70
     Davidson diagonalization with overlap

---- Real-time Memory Report at c_bands before calling an iterative solver
           207 MiB given to the printing process from OS
             0 MiB allocation reported by mallinfo(arena+hblkhd)
           361 MiB available memory on the node where the printing process lives
------------------
     ethr =  1.37E-10,  avg # of iterations =  4.0

     negative rho (up, down):  1.808E-01 0.000E+00

     total cpu time spent up to now is       33.1 secs

     total energy              =      -2.29728403 Ry
     estimated scf accuracy    <       0.00000007 Ry

     iteration # 59     ecut=    15.00 Ry     beta= 0.70
     Davidson diagonalization with overlap

---- Real-time Memory Report at c_bands before calling an iterative solver
           207 MiB given to the printing process from OS
             0 MiB allocation reported by mallinfo(arena+hblkhd)
           361 MiB available memory on the node where the printing process lives
------------------
     ethr =  1.37E-10,  avg # of iterations =  2.0

     negative rho (up, down):  1.809E-01 0.000E+00

     total cpu time spent up to now is       33.5 secs

     total energy              =      -2.29724131 Ry
     estimated scf accuracy    <       0.00000007 Ry

     iteration # 60     ecut=    15.00 Ry     beta= 0.70
     Davidson diagonalization with overlap

---- Real-time Memory Report at c_bands before calling an iterative solver
           207 MiB given to the printing process from OS
             0 MiB allocation reported by mallinfo(arena+hblkhd)
           361 MiB available memory on the node where the printing process lives
------------------
     ethr =  1.37E-10,  avg # of iterations =  5.0

     negative rho (up, down):  1.809E-01 0.000E+00

     total cpu time spent up to now is       33.9 secs

     total energy              =      -2.29723635 Ry
     estimated scf accuracy    <       0.00000016 Ry

     iteration # 61     ecut=    15.00 Ry     beta= 0.70
     Davidson diagonalization with overlap

---- Real-time Memory Report at c_bands before calling an iterative solver
           207 MiB given to the printing process from OS
             0 MiB allocation reported by mallinfo(arena+hblkhd)
           361 MiB available memory on the node where the printing process lives
------------------
     ethr =  1.37E-10,  avg # of iterations =  4.0

     negative rho (up, down):  1.809E-01 0.000E+00

     total cpu time spent up to now is       34.4 secs

     total energy              =      -2.29724206 Ry
     estimated scf accuracy    <       0.00000025 Ry

     iteration # 62     ecut=    15.00 Ry     beta= 0.70
     Davidson diagonalization with overlap

---- Real-time Memory Report at c_bands before calling an iterative solver
           207 MiB given to the printing process from OS
             0 MiB allocation reported by mallinfo(arena+hblkhd)
           361 MiB available memory on the node where the printing process lives
------------------
     ethr =  1.37E-10,  avg # of iterations =  3.0

     negative rho (up, down):  1.809E-01 0.000E+00

     total cpu time spent up to now is       34.8 secs

     total energy              =      -2.29724178 Ry
     estimated scf accuracy    <       0.00000022 Ry

     iteration # 63     ecut=    15.00 Ry     beta= 0.70
     Davidson diagonalization with overlap

---- Real-time Memory Report at c_bands before calling an iterative solver
           207 MiB given to the printing process from OS
             0 MiB allocation reported by mallinfo(arena+hblkhd)
           361 MiB available memory on the node where the printing process lives
------------------
     ethr =  1.37E-10,  avg # of iterations =  3.0

     negative rho (up, down):  1.809E-01 0.000E+00

     total cpu time spent up to now is       35.2 secs

     total energy              =      -2.29724169 Ry
     estimated scf accuracy    <       0.00000020 Ry

     iteration # 64     ecut=    15.00 Ry     beta= 0.70
     Davidson diagonalization with overlap

---- Real-time Memory Report at c_bands before calling an iterative solver
           207 MiB given to the printing process from OS
             0 MiB allocation reported by mallinfo(arena+hblkhd)
           361 MiB available memory on the node where the printing process lives
------------------
     ethr =  1.37E-10,  avg # of iterations =  4.0

     negative rho (up, down):  1.809E-01 0.000E+00

     total cpu time spent up to now is       35.6 secs

     total energy              =      -2.29724859 Ry
     estimated scf accuracy    <          8.4E-09 Ry

     iteration # 65     ecut=    15.00 Ry     beta= 0.70
     Davidson diagonalization with overlap

---- Real-time Memory Report at c_bands before calling an iterative solver
           207 MiB given to the printing process from OS
             0 MiB allocation reported by mallinfo(arena+hblkhd)
           361 MiB available memory on the node where the printing process lives
------------------
     ethr =  1.37E-10,  avg # of iterations =  4.0

     negative rho (up, down):  1.809E-01 0.000E+00

     total cpu time spent up to now is       36.0 secs

     total energy              =      -2.29722725 Ry
     estimated scf accuracy    <          2.8E-09 Ry

     iteration # 66     ecut=    15.00 Ry     beta= 0.70
     Davidson diagonalization with overlap

---- Real-time Memory Report at c_bands before calling an iterative solver
           207 MiB given to the printing process from OS
             0 MiB allocation reported by mallinfo(arena+hblkhd)
           361 MiB available memory on the node where the printing process lives
------------------
     ethr =  1.37E-10,  avg # of iterations =  5.0

     negative rho (up, down):  1.809E-01 0.000E+00

     total cpu time spent up to now is       36.4 secs

     total energy              =      -2.29724749 Ry
     estimated scf accuracy    <       0.00000026 Ry

     iteration # 67     ecut=    15.00 Ry     beta= 0.70
     Davidson diagonalization with overlap

---- Real-time Memory Report at c_bands before calling an iterative solver
           207 MiB given to the printing process from OS
             0 MiB allocation reported by mallinfo(arena+hblkhd)
           361 MiB available memory on the node where the printing process lives
------------------
     ethr =  1.37E-10,  avg # of iterations =  5.0

     negative rho (up, down):  1.808E-01 0.000E+00

     total cpu time spent up to now is       36.8 secs

     total energy              =      -2.29725334 Ry
     estimated scf accuracy    <          5.6E-09 Ry

     iteration # 68     ecut=    15.00 Ry     beta= 0.70
     Davidson diagonalization with overlap

---- Real-time Memory Report at c_bands before calling an iterative solver
           207 MiB given to the printing process from OS
             0 MiB allocation reported by mallinfo(arena+hblkhd)
           361 MiB available memory on the node where the printing process lives
------------------
     ethr =  1.37E-10,  avg # of iterations =  4.0

     negative rho (up, down):  1.809E-01 0.000E+00

     total cpu time spent up to now is       37.2 secs

     total energy              =      -2.29724070 Ry
     estimated scf accuracy    <       0.00000005 Ry

     iteration # 69     ecut=    15.00 Ry     beta= 0.70
     Davidson diagonalization with overlap

---- Real-time Memory Report at c_bands before calling an iterative solver
           207 MiB given to the printing process from OS
             0 MiB allocation reported by mallinfo(arena+hblkhd)
           361 MiB available memory on the node where the printing process lives
------------------
     ethr =  1.37E-10,  avg # of iterations =  4.0

     negative rho (up, down):  1.809E-01 0.000E+00

     total cpu time spent up to now is       37.7 secs

     total energy              =      -2.29724970 Ry
     estimated scf accuracy    <          8.9E-09 Ry

     iteration # 70     ecut=    15.00 Ry     beta= 0.70
     Davidson diagonalization with overlap

---- Real-time Memory Report at c_bands before calling an iterative solver
           207 MiB given to the printing process from OS
             0 MiB allocation reported by mallinfo(arena+hblkhd)
           361 MiB available memory on the node where the printing process lives
------------------
     ethr =  1.37E-10,  avg # of iterations =  4.0

     negative rho (up, down):  1.809E-01 0.000E+00

     total cpu time spent up to now is       38.1 secs

     total energy              =      -2.29723179 Ry
     estimated scf accuracy    <       0.00000003 Ry

     iteration # 71     ecut=    15.00 Ry     beta= 0.70
     Davidson diagonalization with overlap

---- Real-time Memory Report at c_bands before calling an iterative solver
           207 MiB given to the printing process from OS
             0 MiB allocation reported by mallinfo(arena+hblkhd)
           361 MiB available memory on the node where the printing process lives
------------------
     ethr =  1.37E-10,  avg # of iterations =  4.0

     negative rho (up, down):  1.808E-01 0.000E+00

     total cpu time spent up to now is       38.5 secs

     total energy              =      -2.29727191 Ry
     estimated scf accuracy    <          3.9E-09 Ry

     iteration # 72     ecut=    15.00 Ry     beta= 0.70
     Davidson diagonalization with overlap

---- Real-time Memory Report at c_bands before calling an iterative solver
           207 MiB given to the printing process from OS
             0 MiB allocation reported by mallinfo(arena+hblkhd)
           361 MiB available memory on the node where the printing process lives
------------------
     ethr =  1.37E-10,  avg # of iterations =  4.0

     negative rho (up, down):  1.808E-01 0.000E+00

     total cpu time spent up to now is       38.9 secs

     total energy              =      -2.29727451 Ry
     estimated scf accuracy    <       0.00000003 Ry

     iteration # 73     ecut=    15.00 Ry     beta= 0.70
[...]
------------------
     ethr =  1.37E-10,  avg # of iterations =  3.0

     negative rho (up, down):  1.809E-01 0.000E+00

     total cpu time spent up to now is       40.5 secs

     total energy              =      -2.29725045 Ry
     estimated scf accuracy    <       0.00000014 Ry

     iteration # 77     ecut=    15.00 Ry     beta= 0.70
     Davidson diagonalization with overlap

---- Real-time Memory Report at c_bands before calling an iterative solver
           207 MiB given to the printing process from OS
             0 MiB allocation reported by mallinfo(arena+hblkhd)
           361 MiB available memory on the node where the printing process lives
------------------
     ethr =  1.37E-10,  avg # of iterations =  4.0

     negative rho (up, down):  1.809E-01 0.000E+00

     total cpu time spent up to now is       40.9 secs

     total energy              =      -2.29725758 Ry
     estimated scf accuracy    <       0.00000002 Ry

     iteration # 78     ecut=    15.00 Ry     beta= 0.70
     Davidson diagonalization with overlap

---- Real-time Memory Report at c_bands before calling an iterative solver
           207 MiB given to the printing process from OS
             0 MiB allocation reported by mallinfo(arena+hblkhd)
           361 MiB available memory on the node where the printing process lives
------------------
     ethr =  1.37E-10,  avg # of iterations =  3.0

     negative rho (up, down):  1.809E-01 0.000E+00

     total cpu time spent up to now is       41.3 secs

     total energy              =      -2.29724462 Ry
     estimated scf accuracy    <       0.00000003 Ry

     iteration # 79     ecut=    15.00 Ry     beta= 0.70
     Davidson diagonalization with overlap

---- Real-time Memory Report at c_bands before calling an iterative solver
           207 MiB given to the printing process from OS
             0 MiB allocation reported by mallinfo(arena+hblkhd)
           361 MiB available memory on the node where the printing process lives
------------------
     ethr =  1.37E-10,  avg # of iterations =  5.0

     negative rho (up, down):  1.808E-01 0.000E+00

     total cpu time spent up to now is       41.8 secs

     total energy              =      -2.29726674 Ry
     estimated scf accuracy    <       0.00000033 Ry

     iteration # 80     ecut=    15.00 Ry     beta= 0.70
     Davidson diagonalization with overlap

---- Real-time Memory Report at c_bands before calling an iterative solver
           207 MiB given to the printing process from OS
             0 MiB allocation reported by mallinfo(arena+hblkhd)
           361 MiB available memory on the node where the printing process lives
------------------
     ethr =  1.37E-10,  avg # of iterations =  4.0

     negative rho (up, down):  1.808E-01 0.000E+00

     total cpu time spent up to now is       42.2 secs

     total energy              =      -2.29727638 Ry
     estimated scf accuracy    <       0.00000005 Ry

     iteration # 81     ecut=    15.00 Ry     beta= 0.70
     Davidson diagonalization with overlap

---- Real-time Memory Report at c_bands before calling an iterative solver
           207 MiB given to the printing process from OS
             0 MiB allocation reported by mallinfo(arena+hblkhd)
           361 MiB available memory on the node where the printing process lives
------------------
     ethr =  1.37E-10,  avg # of iterations =  4.0

     negative rho (up, down):  1.808E-01 0.000E+00

     total cpu time spent up to now is       42.6 secs

     total energy              =      -2.29727614 Ry
     estimated scf accuracy    <       0.00000002 Ry

     iteration # 82     ecut=    15.00 Ry     beta= 0.70
     Davidson diagonalization with overlap

---- Real-time Memory Report at c_bands before calling an iterative solver
           207 MiB given to the printing process from OS
             0 MiB allocation reported by mallinfo(arena+hblkhd)
           361 MiB available memory on the node where the printing process lives
------------------
     ethr =  1.37E-10,  avg # of iterations =  4.0

     negative rho (up, down):  1.808E-01 0.000E+00

     total cpu time spent up to now is       43.0 secs

     total energy              =      -2.29729786 Ry
     estimated scf accuracy    <          9.9E-09 Ry

     iteration # 83     ecut=    15.00 Ry     beta= 0.70
     Davidson diagonalization with overlap

---- Real-time Memory Report at c_bands before calling an iterative solver
           207 MiB given to the printing process from OS
             0 MiB allocation reported by mallinfo(arena+hblkhd)
           361 MiB available memory on the node where the printing process lives
------------------
     ethr =  1.37E-10,  avg # of iterations =  4.0

     negative rho (up, down):  1.807E-01 0.000E+00

     total cpu time spent up to now is       43.4 secs

     total energy              =      -2.29731952 Ry
     estimated scf accuracy    <       0.00000041 Ry

     iteration # 84     ecut=    15.00 Ry     beta= 0.70
     Davidson diagonalization with overlap

---- Real-time Memory Report at c_bands before calling an iterative solver
           207 MiB given to the printing process from OS
             0 MiB allocation reported by mallinfo(arena+hblkhd)
           361 MiB available memory on the node where the printing process lives
------------------
     ethr =  1.37E-10,  avg # of iterations =  4.0

     negative rho (up, down):  1.808E-01 0.000E+00

     total cpu time spent up to now is       43.8 secs

     total energy              =      -2.29728583 Ry
     estimated scf accuracy    <       0.00000093 Ry

     iteration # 85     ecut=    15.00 Ry     beta= 0.70
     Davidson diagonalization with overlap

---- Real-time Memory Report at c_bands before calling an iterative solver
           207 MiB given to the printing process from OS
             0 MiB allocation reported by mallinfo(arena+hblkhd)
           361 MiB available memory on the node where the printing process lives
------------------
     ethr =  1.37E-10,  avg # of iterations =  4.0

     negative rho (up, down):  1.809E-01 0.000E+00

     total cpu time spent up to now is       44.2 secs

     total energy              =      -2.29723034 Ry
     estimated scf accuracy    <       0.00000030 Ry

     iteration # 86     ecut=    15.00 Ry     beta= 0.70
     Davidson diagonalization with overlap

---- Real-time Memory Report at c_bands before calling an iterative solver
           207 MiB given to the printing process from OS
             0 MiB allocation reported by mallinfo(arena+hblkhd)
           361 MiB available memory on the node where the printing process lives
------------------
     ethr =  1.37E-10,  avg # of iterations =  5.0

     negative rho (up, down):  1.809E-01 0.000E+00

     total cpu time spent up to now is       44.7 secs

     total energy              =      -2.29723352 Ry
     estimated scf accuracy    <       0.00000016 Ry

     iteration # 87     ecut=    15.00 Ry     beta= 0.70
     Davidson diagonalization with overlap

---- Real-time Memory Report at c_bands before calling an iterative solver
           207 MiB given to the printing process from OS
             0 MiB allocation reported by mallinfo(arena+hblkhd)
           361 MiB available memory on the node where the printing process lives
------------------
     ethr =  1.37E-10,  avg # of iterations =  4.0

     negative rho (up, down):  1.809E-01 0.000E+00

     total cpu time spent up to now is       45.1 secs

     total energy              =      -2.29724305 Ry
     estimated scf accuracy    <       0.00000004 Ry

     iteration # 88     ecut=    15.00 Ry     beta= 0.70
     Davidson diagonalization with overlap

---- Real-time Memory Report at c_bands before calling an iterative solver
           207 MiB given to the printing process from OS
             0 MiB allocation reported by mallinfo(arena+hblkhd)
           361 MiB available memory on the node where the printing process lives
------------------
     ethr =  1.37E-10,  avg # of iterations =  4.0

     negative rho (up, down):  1.809E-01 0.000E+00

     total cpu time spent up to now is       45.5 secs

     total energy              =      -2.29723918 Ry
     estimated scf accuracy    <       0.00000002 Ry

     iteration # 89     ecut=    15.00 Ry     beta= 0.70
     Davidson diagonalization with overlap

---- Real-time Memory Report at c_bands before calling an iterative solver
           207 MiB given to the printing process from OS
             0 MiB allocation reported by mallinfo(arena+hblkhd)
           361 MiB available memory on the node where the printing process lives
------------------
     ethr =  1.37E-10,  avg # of iterations =  3.0

     negative rho (up, down):  1.809E-01 0.000E+00

     total cpu time spent up to now is       45.9 secs

     total energy              =      -2.29725863 Ry
     estimated scf accuracy    <       0.00000003 Ry

     iteration # 90     ecut=    15.00 Ry     beta= 0.70
     Davidson diagonalization with overlap

---- Real-time Memory Report at c_bands before calling an iterative solver
           207 MiB given to the printing process from OS
             0 MiB allocation reported by mallinfo(arena+hblkhd)
           361 MiB available memory on the node where the printing process lives
------------------
     ethr =  1.37E-10,  avg # of iterations =  4.0

     negative rho (up, down):  1.809E-01 0.000E+00

     total cpu time spent up to now is       46.3 secs

     total energy              =      -2.29725593 Ry
     estimated scf accuracy    <       0.00000010 Ry

     iteration # 91     ecut=    15.00 Ry     beta= 0.70
     Davidson diagonalization with overlap

---- Real-time Memory Report at c_bands before calling an iterative solver
           207 MiB given to the printing process from OS
             0 MiB allocation reported by mallinfo(arena+hblkhd)
           361 MiB available memory on the node where the printing process lives
------------------
     ethr =  1.37E-10,  avg # of iterations =  5.0

     negative rho (up, down):  1.810E-01 0.000E+00

     total cpu time spent up to now is       46.7 secs

     total energy              =      -2.29719247 Ry
     estimated scf accuracy    <       0.00000012 Ry

     iteration # 92     ecut=    15.00 Ry     beta= 0.70
     Davidson diagonalization with overlap

---- Real-time Memory Report at c_bands before calling an iterative solver
           207 MiB given to the printing process from OS
             0 MiB allocation reported by mallinfo(arena+hblkhd)
           361 MiB available memory on the node where the printing process lives
------------------
     ethr =  1.37E-10,  avg # of iterations =  4.0

     negative rho (up, down):  1.810E-01 0.000E+00

     total cpu time spent up to now is       47.1 secs

     total energy              =      -2.29719015 Ry
     estimated scf accuracy    <       0.00000021 Ry

     iteration # 93     ecut=    15.00 Ry     beta= 0.70
     Davidson diagonalization with overlap

---- Real-time Memory Report at c_bands before calling an iterative solver
           207 MiB given to the printing process from OS
             0 MiB allocation reported by mallinfo(arena+hblkhd)
           361 MiB available memory on the node where the printing process lives
------------------
     ethr =  1.37E-10,  avg # of iterations =  4.0

     negative rho (up, down):  1.809E-01 0.000E+00

     total cpu time spent up to now is       47.6 secs

     total energy              =      -2.29721507 Ry
     estimated scf accuracy    <       0.00000007 Ry

     iteration # 94     ecut=    15.00 Ry     beta= 0.70
     Davidson diagonalization with overlap

---- Real-time Memory Report at c_bands before calling an iterative solver
           207 MiB given to the printing process from OS
             0 MiB allocation reported by mallinfo(arena+hblkhd)
           361 MiB available memory on the node where the printing process lives
------------------
     ethr =  1.37E-10,  avg # of iterations =  4.0

     negative rho (up, down):  1.810E-01 0.000E+00

     total cpu time spent up to now is       48.0 secs

     total energy              =      -2.29720933 Ry
     estimated scf accuracy    <       0.00000011 Ry

     iteration # 95     ecut=    15.00 Ry     beta= 0.70
     Davidson diagonalization with overlap

---- Real-time Memory Report at c_bands before calling an iterative solver
           207 MiB given to the printing process from OS
             0 MiB allocation reported by mallinfo(arena+hblkhd)
           361 MiB available memory on the node where the printing process lives
------------------
     ethr =  1.37E-10,  avg # of iterations =  4.0

     negative rho (up, down):  1.809E-01 0.000E+00

     total cpu time spent up to now is       48.4 secs

     total energy              =      -2.29724360 Ry
     estimated scf accuracy    <       0.00000026 Ry

     iteration # 96     ecut=    15.00 Ry     beta= 0.70
     Davidson diagonalization with overlap

---- Real-time Memory Report at c_bands before calling an iterative solver
           207 MiB given to the printing process from OS
             0 MiB allocation reported by mallinfo(arena+hblkhd)
           361 MiB available memory on the node where the printing process lives
------------------
     ethr =  1.37E-10,  avg # of iterations =  4.0

     negative rho (up, down):  1.809E-01 0.000E+00

     total cpu time spent up to now is       48.8 secs

     total energy              =      -2.29724901 Ry
     estimated scf accuracy    <       0.00000002 Ry

     iteration # 97     ecut=    15.00 Ry     beta= 0.70
     Davidson diagonalization with overlap

---- Real-time Memory Report at c_bands before calling an iterative solver
           207 MiB given to the printing process from OS
             0 MiB allocation reported by mallinfo(arena+hblkhd)
           361 MiB available memory on the node where the printing process lives
------------------
     ethr =  1.37E-10,  avg # of iterations =  3.0

     negative rho (up, down):  1.808E-01 0.000E+00

     total cpu time spent up to now is       49.2 secs

     total energy              =      -2.29727677 Ry
     estimated scf accuracy    <       0.00000002 Ry

     iteration # 98     ecut=    15.00 Ry     beta= 0.70
     Davidson diagonalization with overlap

---- Real-time Memory Report at c_bands before calling an iterative solver
           207 MiB given to the printing process from OS
             0 MiB allocation reported by mallinfo(arena+hblkhd)
           361 MiB available memory on the node where the printing process lives
------------------
     ethr =  1.37E-10,  avg # of iterations =  4.0

     negative rho (up, down):  1.808E-01 0.000E+00

     total cpu time spent up to now is       49.6 secs

     total energy              =      -2.29727781 Ry
     estimated scf accuracy    <       0.00000001 Ry

     iteration # 99     ecut=    15.00 Ry     beta= 0.70
     Davidson diagonalization with overlap

---- Real-time Memory Report at c_bands before calling an iterative solver
           207 MiB given to the printing process from OS
             0 MiB allocation reported by mallinfo(arena+hblkhd)
           361 MiB available memory on the node where the printing process lives
------------------
     ethr =  1.37E-10,  avg # of iterations =  4.0

     negative rho (up, down):  1.808E-01 0.000E+00

     total cpu time spent up to now is       50.0 secs

     total energy              =      -2.29727482 Ry
     estimated scf accuracy    <          9.7E-09 Ry

     iteration #100     ecut=    15.00 Ry     beta= 0.70
     Davidson diagonalization with overlap

---- Real-time Memory Report at c_bands before calling an iterative solver
           207 MiB given to the printing process from OS
             0 MiB allocation reported by mallinfo(arena+hblkhd)
           361 MiB available memory on the node where the printing process lives
------------------
     ethr =  1.37E-10,  avg # of iterations =  4.0

     negative rho (up, down):  1.808E-01 0.000E+00

     total cpu time spent up to now is       50.4 secs

     total energy              =      -2.29727495 Ry
     estimated scf accuracy    <       0.00000001 Ry

     End of self-consistent calculation

     convergence NOT achieved after 100 iterations: stopping

     Writing config to output data dir ./.save/
     Message from routine punch:
     wavefunctions written to file

     init_run     :      0.37s CPU      0.41s WALL (       1 calls)
     electrons    :     48.81s CPU     48.93s WALL (       4 calls)
     update_pot   :      0.72s CPU      0.75s WALL (       3 calls)
     forces       :      0.26s CPU      0.26s WALL (       3 calls)

     Called by init_run:
     wfcinit      :      0.03s CPU      0.03s WALL (       1 calls)
     wfcinit:atom :      0.00s CPU      0.00s WALL (       1 calls)
     wfcinit:wfcr :      0.03s CPU      0.03s WALL (       1 calls)
     potinit      :      0.23s CPU      0.25s WALL (       1 calls)
     hinit0       :      0.02s CPU      0.02s WALL (       1 calls)

     Called by electrons:
     c_bands      :     11.49s CPU     11.50s WALL (     119 calls)
     sum_band     :      5.48s CPU      5.50s WALL (     119 calls)
     v_of_rho     :     24.86s CPU     24.92s WALL (     123 calls)
     v_h          :      1.40s CPU      1.41s WALL (     123 calls)
     v_xc         :     23.45s CPU     23.51s WALL (     123 calls)
     newd         :      1.83s CPU      1.83s WALL (     123 calls)
     mix_rho      :      5.48s CPU      5.52s WALL (     119 calls)

     Called by c_bands:
     init_us_2    :      0.16s CPU      0.17s WALL (     239 calls)
     init_us_2:cp :      0.16s CPU      0.16s WALL (     239 calls)
     cegterg      :     11.37s CPU     11.38s WALL (     119 calls)

     Called by sum_band:
     sum_band:wei :      0.00s CPU      0.00s WALL (     119 calls)
     sum_band:loo :      1.61s CPU      1.62s WALL (     119 calls)
     sum_band:buf :      0.00s CPU      0.00s WALL (     119 calls)
     sum_band:ini :      0.08s CPU      0.08s WALL (     119 calls)
     sum_band:cal :      0.02s CPU      0.02s WALL (     119 calls)
     sum_band:bec :      0.00s CPU      0.00s WALL (     119 calls)
     addusdens    :      0.49s CPU      0.50s WALL (     119 calls)
     addusd:skk   :      0.15s CPU      0.15s WALL (     119 calls)
     addusd:dgemm :      0.10s CPU      0.11s WALL (     119 calls)
     addusd:qvan2 :      0.12s CPU      0.13s WALL (     119 calls)

     Called by *egterg:
     cdiaghg      :      0.01s CPU      0.01s WALL (     576 calls)
     cegterg:over :      0.15s CPU      0.15s WALL (     460 calls)
     cegterg:upda :      0.12s CPU      0.12s WALL (     460 calls)
     cegterg:last :      0.24s CPU      0.24s WALL (     343 calls)
     h_psi        :     10.64s CPU     10.65s WALL (     580 calls)
     s_psi        :      0.06s CPU      0.06s WALL (     580 calls)
     g_psi        :      0.05s CPU      0.05s WALL (     460 calls)

     Called by h_psi:
     h_psi:calbec :      0.08s CPU      0.08s WALL (     580 calls)
     vloc_psi     :     10.46s CPU     10.46s WALL (     580 calls)
     add_vuspsi   :      0.06s CPU      0.06s WALL (     580 calls)

     General routines
     calbec       :      0.10s CPU      0.10s WALL (     711 calls)
     fft          :     12.30s CPU     12.31s WALL (    1362 calls)
     ffts         :      1.12s CPU      1.12s WALL (     119 calls)
     fftw         :     10.86s CPU     10.87s WALL (    1920 calls)
     davcio       :      0.00s CPU      0.01s WALL (      19 calls)


     PWSCF        :     50.30s CPU     50.50s WALL


   This run was terminated on:   3: 6: 3  28Feb2022            

=------------------------------------------------------------------------------=
   JOB DONE.
=------------------------------------------------------------------------------=
