
     Program PWSCF v.7.0 starts on 28Feb2022 at  2:59:51 

     This program is part of the open-source Quantum ESPRESSO suite
     for quantum simulation of materials; please cite
         "P. Giannozzi et al., J. Phys.:Condens. Matter 21 395502 (2009);
         "P. Giannozzi et al., J. Phys.:Condens. Matter 29 465901 (2017);
         "P. Giannozzi et al., J. Chem. Phys. 152 154105 (2020);
          URL http://www.quantum-espresso.org", 
     in publications or presentations arising from this work. More details at
     http://www.quantum-espresso.org/quote

     Serial version
     560 MiB available memory on the printing compute node when the environment starts

     Waiting for input...
     Reading input from standard input

     Current dimensions of program PWSCF are:
     Max number of different atomic species (ntypx) = 10
     Max number of k-points (npk) =  40000
     Max angular momentum in pseudopotentials (lmaxx) =  4

     File ./.update deleted, as requested

     File ./.bfgs deleted, as requested

    ============================================================
    |  pseudopotential report for atomic species:  1           |
    |        pseudo potential version   7   3   2              |
    ------------------------------------------------------------
    |  hydrogen            PBE                  exchange-corr  |
    |  z =   1.    zv( 1) =   1.    exfact =   5.00000         |
    |  ifpcor =  0           atomic energy =  -0.91772 Ry      |
    |  index    orbital      occupation    energy              |
    |    1        100           1.00       -0.48               |
    |  rinner =  0.5000                                        |
    |    new generation scheme:                                |
    |    nbeta =  1     kkbeta =  271     rcloc =    0.6000    |
    |    ibeta    l     epsilon   rcut                         |
    |      1       0      -0.48   0.80                         |
    ============================================================

     IMPORTANT: XC functional enforced from input :
     Exchange-correlation= BLYP
                           (   1   3   1   3   0   0   0)
     Any further DFT definition will be discarded
     Please, verify this is what you really want


     G-vector sticks info
     --------------------
     sticks:   dense  smooth     PW     G-vecs:    dense   smooth      PW
     Sum        2869    2869    793               115313   115313   17071

     Using Slab Decomposition



     bravais-lattice index     =            1
     lattice parameter (alat)  =      30.0000  a.u.
     unit-cell volume          =   27000.0000 (a.u.)^3
     number of atoms/cell      =            2
     number of atomic types    =            1
     number of electrons       =         2.00
     number of Kohn-Sham states=            2
     kinetic-energy cutoff     =      10.0000  Ry
     charge density cutoff     =      40.0000  Ry
     scf convergence threshold =      1.0E-08
     mixing beta               =       0.7000
     number of iterations used =            8  plain     mixing
     energy convergence thresh.=      1.0E-04
     force convergence thresh. =      1.0E-03
     Exchange-correlation= BLYP
                           (   1   3   1   3   0   0   0)
     nstep                     =           50


     celldm(1)=  30.000000  celldm(2)=   0.000000  celldm(3)=   0.000000
     celldm(4)=   0.000000  celldm(5)=   0.000000  celldm(6)=   0.000000

     crystal axes: (cart. coord. in units of alat)
               a(1) = (   1.000000   0.000000   0.000000 )  
               a(2) = (   0.000000   1.000000   0.000000 )  
               a(3) = (   0.000000   0.000000   1.000000 )  

     reciprocal axes: (cart. coord. in units 2 pi/alat)
               b(1) = (  1.000000  0.000000  0.000000 )  
               b(2) = (  0.000000  1.000000  0.000000 )  
               b(3) = (  0.000000  0.000000  1.000000 )  


     PseudoPot. # 1 for hy read from file:
     /root/q-e/pseudo/H_US.van
     MD5 check sum: a9a9bfe98ff56cf4de197d71fc46bb44
     Pseudo is Ultrasoft, Zval =  1.0
     Generated by Vanderbilt code, v. 7.3.2
     Using radial grid of  399 points,  1 beta functions with: 
                l(1) =   0
     Q(r) pseudized with  8 coefficients,  rinner =    0.500

     atomic species   valence    mass     pseudopotential
        H              1.00     1.00784     hy( 1.00)

      8 Sym. Ops. (no inversion) found


                                    s                        frac. trans.

      isym =  1     identity                                     

 cryst.   s( 1) = (     1          0          0      )
                  (     0          1          0      )
                  (     0          0          1      )

 cart.    s( 1) = (  1.0000000  0.0000000  0.0000000 )
                  (  0.0000000  1.0000000  0.0000000 )
                  (  0.0000000  0.0000000  1.0000000 )


      isym =  2     180 deg rotation - cart. axis [1,0,0]        

 cryst.   s( 2) = (     1          0          0      )
                  (     0         -1          0      )
                  (     0          0         -1      )

 cart.    s( 2) = (  1.0000000  0.0000000  0.0000000 )
                  (  0.0000000 -1.0000000  0.0000000 )
                  (  0.0000000  0.0000000 -1.0000000 )


      isym =  3      90 deg rotation - cart. axis [-1,0,0]       

 cryst.   s( 3) = (     1          0          0      )
                  (     0          0         -1      )
                  (     0          1          0      )

 cart.    s( 3) = (  1.0000000  0.0000000  0.0000000 )
                  (  0.0000000  0.0000000  1.0000000 )
                  (  0.0000000 -1.0000000  0.0000000 )


      isym =  4      90 deg rotation - cart. axis [1,0,0]        

 cryst.   s( 4) = (     1          0          0      )
                  (     0          0          1      )
                  (     0         -1          0      )

 cart.    s( 4) = (  1.0000000  0.0000000  0.0000000 )
                  (  0.0000000  0.0000000 -1.0000000 )
                  (  0.0000000  1.0000000  0.0000000 )


      isym =  5     inv. 180 deg rotation - cart. axis [0,0,1]   

 cryst.   s( 5) = (     1          0          0      )
                  (     0          1          0      )
                  (     0          0         -1      )

 cart.    s( 5) = (  1.0000000  0.0000000  0.0000000 )
                  (  0.0000000  1.0000000  0.0000000 )
                  (  0.0000000  0.0000000 -1.0000000 )


      isym =  6     inv. 180 deg rotation - cart. axis [0,1,0]   

 cryst.   s( 6) = (     1          0          0      )
                  (     0         -1          0      )
                  (     0          0          1      )

 cart.    s( 6) = (  1.0000000  0.0000000  0.0000000 )
                  (  0.0000000 -1.0000000  0.0000000 )
                  (  0.0000000  0.0000000  1.0000000 )


      isym =  7     inv. 180 deg rotation - cart. axis [0,1,1]   

 cryst.   s( 7) = (     1          0          0      )
                  (     0          0         -1      )
                  (     0         -1          0      )

 cart.    s( 7) = (  1.0000000  0.0000000  0.0000000 )
                  (  0.0000000  0.0000000 -1.0000000 )
                  (  0.0000000 -1.0000000  0.0000000 )


      isym =  8     inv. 180 deg rotation - cart. axis [0,1,-1]  

 cryst.   s( 8) = (     1          0          0      )
                  (     0          0          1      )
                  (     0          1          0      )

 cart.    s( 8) = (  1.0000000  0.0000000  0.0000000 )
                  (  0.0000000  0.0000000  1.0000000 )
                  (  0.0000000  1.0000000  0.0000000 )


     point group C_4v (4mm) 
     there are  5 classes
     the character table:

       E     2C4   C2    2s_v  2s_d 
A_1    1.00  1.00  1.00  1.00  1.00
A_2    1.00  1.00  1.00 -1.00 -1.00
B_1    1.00 -1.00  1.00  1.00 -1.00
B_2    1.00 -1.00  1.00 -1.00  1.00
E      2.00  0.00 -2.00  0.00  0.00

     the symmetry operations in each class and the name of the first element:

     E        1
          identity                                               
     2C4      3    4
           90 deg rotation - cart. axis [-1,0,0]                 
     C2       2
          180 deg rotation - cart. axis [1,0,0]                  
     2s_v     5    6
          inv. 180 deg rotation - cart. axis [0,0,1]             
     2s_d     7    8
          inv. 180 deg rotation - cart. axis [0,1,1]             

   Cartesian axes

     site n.     atom                  positions (alat units)
         1           H   tau(   1) = (   0.0000000   0.0000000   0.0000000  )
         2           H   tau(   2) = (   0.0541721   0.0000000   0.0000000  )

   Crystallographic axes

     site n.     atom                  positions (cryst. coord.)
         1           H   tau(   1) = (  0.0000000  0.0000000  0.0000000  )
         2           H   tau(   2) = (  0.0541721  0.0000000  0.0000000  )

     number of k points=     1
                       cart. coord. in units 2pi/alat
        k(    1) = (  -0.5000000  -0.5000000  -0.5000000), wk =   2.0000000

                       cryst. coord.
        k(    1) = (  -0.5000000  -0.5000000  -0.5000000), wk =   2.0000000

     Dense  grid:   115313 G-vectors     FFT dimensions: (  64,  64,  64)

     Dynamical RAM for                 wfc:       0.44 MB

     Dynamical RAM for     wfc (w. buffer):       0.44 MB

     Dynamical RAM for           str. fact:       1.76 MB

     Dynamical RAM for           local pot:       0.00 MB

     Dynamical RAM for          nlocal pot:       0.44 MB

     Dynamical RAM for                qrad:       0.00 MB

     Dynamical RAM for          rho,v,vnew:      11.28 MB

     Dynamical RAM for               rhoin:       3.76 MB

     Dynamical RAM for            rho*nmix:      28.15 MB

     Dynamical RAM for           G-vectors:       7.48 MB

     Dynamical RAM for          h,s,v(r/c):       0.00 MB

     Dynamical RAM for          <psi|beta>:       0.00 MB

     Dynamical RAM for                 psi:       0.88 MB

     Dynamical RAM for                hpsi:       0.88 MB

     Dynamical RAM for                spsi:       0.88 MB

     Dynamical RAM for      wfcinit/wfcrot:       0.88 MB

     Dynamical RAM for           addusdens:      10.56 MB

     Dynamical RAM for          addusforce:      14.96 MB

     Estimated static dynamical RAM per process >      38.68 MB

     Estimated max dynamical RAM per process >      81.79 MB

     Initial potential from superposition of free atoms

     starting charge       2.0000, renormalised to       2.0000

     negative rho (up, down):  1.953E-01 0.000E+00
     Starting wfcs are    2 randomized atomic wfcs

     total cpu time spent up to now is        0.2 secs

     Self-consistent Calculation

     iteration #  1     ecut=    10.00 Ry     beta= 0.70
     Davidson diagonalization with overlap

---- Real-time Memory Report at c_bands before calling an iterative solver
            80 MiB given to the printing process from OS
             0 MiB allocation reported by mallinfo(arena+hblkhd)
           513 MiB available memory on the node where the printing process lives
------------------
     ethr =  1.00E-02,  avg # of iterations =  3.0

     negative rho (up, down):  2.626E-01 0.000E+00

     total cpu time spent up to now is        0.5 secs

     total energy              =      -2.24313724 Ry
     estimated scf accuracy    <       0.08242042 Ry

     iteration #  2     ecut=    10.00 Ry     beta= 0.70
     Davidson diagonalization with overlap

---- Real-time Memory Report at c_bands before calling an iterative solver
           100 MiB given to the printing process from OS
             0 MiB allocation reported by mallinfo(arena+hblkhd)
           473 MiB available memory on the node where the printing process lives
------------------
     ethr =  4.12E-03,  avg # of iterations =  2.0

     negative rho (up, down):  2.750E-01 0.000E+00

     total cpu time spent up to now is        0.7 secs

     total energy              =      -2.24309967 Ry
     estimated scf accuracy    <       0.00129756 Ry

     iteration #  3     ecut=    10.00 Ry     beta= 0.70
     Davidson diagonalization with overlap

---- Real-time Memory Report at c_bands before calling an iterative solver
           104 MiB given to the printing process from OS
             0 MiB allocation reported by mallinfo(arena+hblkhd)
           469 MiB available memory on the node where the printing process lives
------------------
     ethr =  6.49E-05,  avg # of iterations = 11.0

     negative rho (up, down):  2.732E-01 0.000E+00

     total cpu time spent up to now is        0.9 secs

     total energy              =      -2.24416406 Ry
     estimated scf accuracy    <       0.00002893 Ry

     iteration #  4     ecut=    10.00 Ry     beta= 0.70
     Davidson diagonalization with overlap

---- Real-time Memory Report at c_bands before calling an iterative solver
           107 MiB given to the printing process from OS
             0 MiB allocation reported by mallinfo(arena+hblkhd)
           466 MiB available memory on the node where the printing process lives
------------------
     ethr =  1.45E-06,  avg # of iterations =  6.0

     negative rho (up, down):  2.736E-01 0.000E+00

     total cpu time spent up to now is        1.2 secs

     total energy              =      -2.24409780 Ry
     estimated scf accuracy    <       0.00000211 Ry

     iteration #  5     ecut=    10.00 Ry     beta= 0.70
     Davidson diagonalization with overlap

---- Real-time Memory Report at c_bands before calling an iterative solver
           111 MiB given to the printing process from OS
             0 MiB allocation reported by mallinfo(arena+hblkhd)
           462 MiB available memory on the node where the printing process lives
------------------
     ethr =  1.05E-07,  avg # of iterations =  2.0

     negative rho (up, down):  2.736E-01 0.000E+00

     total cpu time spent up to now is        1.4 secs

     End of self-consistent calculation

          k =-0.5000-0.5000-0.5000 ( 14400 PWs)   bands (ev):

   -10.1942  -1.4643

     occupation numbers 
     1.0000   0.0000

     highest occupied, lowest unoccupied level (ev):   -10.1942   -1.4643

!    total energy              =      -2.24410410 Ry
     estimated scf accuracy    <          3.3E-09 Ry

     The total energy is the sum of the following terms:
     one-electron contribution =      -3.89266851 Ry
     hartree contribution      =       2.10191207 Ry
     xc contribution           =      -1.30609753 Ry
     ewald contribution        =       0.85274987 Ry

     convergence has been achieved in   5 iterations

     Forces acting on atoms (cartesian axes, Ry/au):

     atom    1 type  1   force =     0.18483271    0.00000000    0.00000000
     atom    2 type  1   force =    -0.18483271    0.00000000    0.00000000
     The non-local contrib.  to forces
     atom    1 type  1   force =     0.14290480    0.00000000    0.00000000
     atom    2 type  1   force =    -0.14473274    0.00000000    0.00000000
     The ionic contribution  to forces
     atom    1 type  1   force =    -0.75673448    0.00000000   -0.00000000
     atom    2 type  1   force =     0.75673448    0.00000000   -0.00000000
     The local contribution  to forces
     atom    1 type  1   force =     0.79793166    0.00000000    0.00000000
     atom    2 type  1   force =    -0.79757487    0.00000000    0.00000000
     The core correction contribution to forces
     atom    1 type  1   force =     0.00000000    0.00000000    0.00000000
     atom    2 type  1   force =     0.00000000    0.00000000    0.00000000
     The Hubbard contrib.    to forces
     atom    1 type  1   force =     0.00000000    0.00000000    0.00000000
     atom    2 type  1   force =     0.00000000    0.00000000    0.00000000
     The SCF correction term to forces
     atom    1 type  1   force =     0.00006218   -0.00000000   -0.00000000
     atom    2 type  1   force =     0.00007187   -0.00000000   -0.00000000

     Total force =     0.261393     Total SCF correction =     0.000095

     BFGS Geometry Optimization
     Energy error            =      0.0E+00 Ry
     Gradient error          =      1.8E-01 Ry/Bohr

     number of scf cycles    =   1
     number of bfgs steps    =   0

     energy             new  =      -2.2441041008 Ry

     new trust radius        =       0.1848327148 bohr
     new conv_thr            =       0.0000000100 Ry


ATOMIC_POSITIONS (angstrom)
H             0.0978092605        0.0000000000        0.0000000000
H             0.7621907395        0.0000000000        0.0000000000



     Writing config-only to output data dir ./.save/
     NEW-OLD atomic charge density approx. for the potential

     negative rho (up, down):  2.892E-01 0.000E+00

     total cpu time spent up to now is        1.6 secs

     Self-consistent Calculation

     iteration #  1     ecut=    10.00 Ry     beta= 0.70
     Davidson diagonalization with overlap

---- Real-time Memory Report at c_bands before calling an iterative solver
           113 MiB given to the printing process from OS
             0 MiB allocation reported by mallinfo(arena+hblkhd)
           508 MiB available memory on the node where the printing process lives
------------------
     c_bands:  1 eigenvalues not converged
     ethr =  1.00E-06,  avg # of iterations = 20.0

     negative rho (up, down):  3.624E-01 0.000E+00

     total cpu time spent up to now is        2.0 secs

     total energy              =      -2.23015799 Ry
     estimated scf accuracy    <       0.00865302 Ry

     iteration #  2     ecut=    10.00 Ry     beta= 0.70
     Davidson diagonalization with overlap

---- Real-time Memory Report at c_bands before calling an iterative solver
           113 MiB given to the printing process from OS
             0 MiB allocation reported by mallinfo(arena+hblkhd)
           470 MiB available memory on the node where the printing process lives
------------------
     ethr =  4.33E-04,  avg # of iterations =  2.0

     negative rho (up, down):  3.796E-01 0.000E+00

     total cpu time spent up to now is        2.2 secs

     total energy              =      -2.22331122 Ry
     estimated scf accuracy    <       0.00007602 Ry

     iteration #  3     ecut=    10.00 Ry     beta= 0.70
     Davidson diagonalization with overlap

---- Real-time Memory Report at c_bands before calling an iterative solver
           113 MiB given to the printing process from OS
             0 MiB allocation reported by mallinfo(arena+hblkhd)
           467 MiB available memory on the node where the printing process lives
------------------
     ethr =  3.80E-06,  avg # of iterations =  5.0

     negative rho (up, down):  3.818E-01 0.000E+00

     total cpu time spent up to now is        2.4 secs

     total energy              =      -2.22219774 Ry
     estimated scf accuracy    <       0.00000512 Ry

     iteration #  4     ecut=    10.00 Ry     beta= 0.70
     Davidson diagonalization with overlap

---- Real-time Memory Report at c_bands before calling an iterative solver
           113 MiB given to the printing process from OS
             0 MiB allocation reported by mallinfo(arena+hblkhd)
           463 MiB available memory on the node where the printing process lives
------------------
     ethr =  2.56E-07,  avg # of iterations =  3.0

     negative rho (up, down):  3.832E-01 0.000E+00

     total cpu time spent up to now is        2.6 secs

     total energy              =      -2.22168782 Ry
     estimated scf accuracy    <       0.00000835 Ry

     iteration #  5     ecut=    10.00 Ry     beta= 0.70
     Davidson diagonalization with overlap

---- Real-time Memory Report at c_bands before calling an iterative solver
           114 MiB given to the printing process from OS
             0 MiB allocation reported by mallinfo(arena+hblkhd)
           460 MiB available memory on the node where the printing process lives
------------------
     ethr =  2.56E-07,  avg # of iterations =  3.0

     negative rho (up, down):  3.839E-01 0.000E+00

     total cpu time spent up to now is        2.9 secs

     total energy              =      -2.22138927 Ry
     estimated scf accuracy    <       0.00000117 Ry

     iteration #  6     ecut=    10.00 Ry     beta= 0.70
     Davidson diagonalization with overlap

---- Real-time Memory Report at c_bands before calling an iterative solver
           117 MiB given to the printing process from OS
             0 MiB allocation reported by mallinfo(arena+hblkhd)
           456 MiB available memory on the node where the printing process lives
------------------
     ethr =  5.86E-08,  avg # of iterations =  4.0

     negative rho (up, down):  3.837E-01 0.000E+00

     total cpu time spent up to now is        3.1 secs

     total energy              =      -2.22110586 Ry
     estimated scf accuracy    <       0.00002577 Ry

     iteration #  7     ecut=    10.00 Ry     beta= 0.70
     Davidson diagonalization with overlap

---- Real-time Memory Report at c_bands before calling an iterative solver
           121 MiB given to the printing process from OS
             0 MiB allocation reported by mallinfo(arena+hblkhd)
           453 MiB available memory on the node where the printing process lives
------------------
     ethr =  5.86E-08,  avg # of iterations =  5.0

     negative rho (up, down):  3.837E-01 0.000E+00

     total cpu time spent up to now is        3.3 secs

     total energy              =      -2.22152888 Ry
     estimated scf accuracy    <       0.00000402 Ry

     iteration #  8     ecut=    10.00 Ry     beta= 0.70
     Davidson diagonalization with overlap

---- Real-time Memory Report at c_bands before calling an iterative solver
           124 MiB given to the printing process from OS
             0 MiB allocation reported by mallinfo(arena+hblkhd)
           449 MiB available memory on the node where the printing process lives
------------------
     ethr =  5.86E-08,  avg # of iterations =  3.0

     negative rho (up, down):  3.837E-01 0.000E+00

     total cpu time spent up to now is        3.6 secs

     total energy              =      -2.22151918 Ry
     estimated scf accuracy    <       0.00000638 Ry

     iteration #  9     ecut=    10.00 Ry     beta= 0.70
     Davidson diagonalization with overlap

---- Real-time Memory Report at c_bands before calling an iterative solver
           128 MiB given to the printing process from OS
             0 MiB allocation reported by mallinfo(arena+hblkhd)
           446 MiB available memory on the node where the printing process lives
------------------
     ethr =  5.86E-08,  avg # of iterations =  3.0

     negative rho (up, down):  3.839E-01 0.000E+00

     total cpu time spent up to now is        3.8 secs

     total energy              =      -2.22144030 Ry
     estimated scf accuracy    <       0.00000280 Ry

     iteration # 10     ecut=    10.00 Ry     beta= 0.70
     Davidson diagonalization with overlap

---- Real-time Memory Report at c_bands before calling an iterative solver
           131 MiB given to the printing process from OS
             0 MiB allocation reported by mallinfo(arena+hblkhd)
           442 MiB available memory on the node where the printing process lives
------------------
     ethr =  5.86E-08,  avg # of iterations =  3.0

     negative rho (up, down):  3.839E-01 0.000E+00

     total cpu time spent up to now is        4.0 secs

     total energy              =      -2.22142802 Ry
     estimated scf accuracy    <       0.00000045 Ry

     iteration # 11     ecut=    10.00 Ry     beta= 0.70
     Davidson diagonalization with overlap

---- Real-time Memory Report at c_bands before calling an iterative solver
           131 MiB given to the printing process from OS
             0 MiB allocation reported by mallinfo(arena+hblkhd)
           442 MiB available memory on the node where the printing process lives
------------------
     ethr =  2.26E-08,  avg # of iterations =  3.0

     negative rho (up, down):  3.839E-01 0.000E+00

     total cpu time spent up to now is        4.3 secs

     total energy              =      -2.22140435 Ry
     estimated scf accuracy    <       0.00000090 Ry

     iteration # 12     ecut=    10.00 Ry     beta= 0.70
     Davidson diagonalization with overlap

---- Real-time Memory Report at c_bands before calling an iterative solver
           131 MiB given to the printing process from OS
             0 MiB allocation reported by mallinfo(arena+hblkhd)
           443 MiB available memory on the node where the printing process lives
------------------
     ethr =  2.26E-08,  avg # of iterations =  4.0

     negative rho (up, down):  3.840E-01 0.000E+00

     total cpu time spent up to now is        4.5 secs

     total energy              =      -2.22146215 Ry
     estimated scf accuracy    <       0.00000199 Ry

     iteration # 13     ecut=    10.00 Ry     beta= 0.70
     Davidson diagonalization with overlap

---- Real-time Memory Report at c_bands before calling an iterative solver
           131 MiB given to the printing process from OS
             0 MiB allocation reported by mallinfo(arena+hblkhd)
           443 MiB available memory on the node where the printing process lives
------------------
     ethr =  2.26E-08,  avg # of iterations =  3.0

     negative rho (up, down):  3.840E-01 0.000E+00

     total cpu time spent up to now is        4.7 secs

     total energy              =      -2.22146630 Ry
     estimated scf accuracy    <       0.00000239 Ry

     iteration # 14     ecut=    10.00 Ry     beta= 0.70
     Davidson diagonalization with overlap

---- Real-time Memory Report at c_bands before calling an iterative solver
           131 MiB given to the printing process from OS
             0 MiB allocation reported by mallinfo(arena+hblkhd)
           443 MiB available memory on the node where the printing process lives
------------------
     ethr =  2.26E-08,  avg # of iterations =  2.0

     negative rho (up, down):  3.840E-01 0.000E+00

     total cpu time spent up to now is        4.9 secs

     total energy              =      -2.22147264 Ry
     estimated scf accuracy    <       0.00000237 Ry

     iteration # 15     ecut=    10.00 Ry     beta= 0.70
     Davidson diagonalization with overlap

---- Real-time Memory Report at c_bands before calling an iterative solver
           131 MiB given to the printing process from OS
             0 MiB allocation reported by mallinfo(arena+hblkhd)
           443 MiB available memory on the node where the printing process lives
------------------
     ethr =  2.26E-08,  avg # of iterations =  2.0

     negative rho (up, down):  3.846E-01 0.000E+00

     total cpu time spent up to now is        5.2 secs

     total energy              =      -2.22123489 Ry
     estimated scf accuracy    <       0.00000261 Ry

     iteration # 16     ecut=    10.00 Ry     beta= 0.70
     Davidson diagonalization with overlap

---- Real-time Memory Report at c_bands before calling an iterative solver
           131 MiB given to the printing process from OS
             0 MiB allocation reported by mallinfo(arena+hblkhd)
           443 MiB available memory on the node where the printing process lives
------------------
     ethr =  2.26E-08,  avg # of iterations =  3.0

     negative rho (up, down):  3.838E-01 0.000E+00

     total cpu time spent up to now is        5.4 secs

     total energy              =      -2.22135619 Ry
     estimated scf accuracy    <       0.00001136 Ry

     iteration # 17     ecut=    10.00 Ry     beta= 0.70
     Davidson diagonalization with overlap

---- Real-time Memory Report at c_bands before calling an iterative solver
           131 MiB given to the printing process from OS
             0 MiB allocation reported by mallinfo(arena+hblkhd)
           443 MiB available memory on the node where the printing process lives
------------------
     ethr =  2.26E-08,  avg # of iterations =  5.0

     negative rho (up, down):  3.839E-01 0.000E+00

     total cpu time spent up to now is        5.6 secs

     total energy              =      -2.22131412 Ry
     estimated scf accuracy    <       0.00000468 Ry

     iteration # 18     ecut=    10.00 Ry     beta= 0.70
     Davidson diagonalization with overlap

---- Real-time Memory Report at c_bands before calling an iterative solver
           131 MiB given to the printing process from OS
             0 MiB allocation reported by mallinfo(arena+hblkhd)
           443 MiB available memory on the node where the printing process lives
------------------
     ethr =  2.26E-08,  avg # of iterations =  5.0

     negative rho (up, down):  3.840E-01 0.000E+00

     total cpu time spent up to now is        5.9 secs

     total energy              =      -2.22142965 Ry
     estimated scf accuracy    <       0.00000124 Ry

     iteration # 19     ecut=    10.00 Ry     beta= 0.70
     Davidson diagonalization with overlap

---- Real-time Memory Report at c_bands before calling an iterative solver
           131 MiB given to the printing process from OS
             0 MiB allocation reported by mallinfo(arena+hblkhd)
           443 MiB available memory on the node where the printing process lives
------------------
     ethr =  2.26E-08,  avg # of iterations =  3.0

     negative rho (up, down):  3.840E-01 0.000E+00

     total cpu time spent up to now is        6.1 secs

     total energy              =      -2.22142553 Ry
     estimated scf accuracy    <       0.00000137 Ry

     iteration # 20     ecut=    10.00 Ry     beta= 0.70
     Davidson diagonalization with overlap

---- Real-time Memory Report at c_bands before calling an iterative solver
           131 MiB given to the printing process from OS
             0 MiB allocation reported by mallinfo(arena+hblkhd)
           443 MiB available memory on the node where the printing process lives
------------------
     ethr =  2.26E-08,  avg # of iterations =  3.0

     negative rho (up, down):  3.841E-01 0.000E+00

     total cpu time spent up to now is        6.3 secs

     total energy              =      -2.22138272 Ry
     estimated scf accuracy    <       0.00000090 Ry

     iteration # 21     ecut=    10.00 Ry     beta= 0.70
     Davidson diagonalization with overlap

---- Real-time Memory Report at c_bands before calling an iterative solver
           131 MiB given to the printing process from OS
             0 MiB allocation reported by mallinfo(arena+hblkhd)
           443 MiB available memory on the node where the printing process lives
------------------
     ethr =  2.26E-08,  avg # of iterations =  4.0

     negative rho (up, down):  3.841E-01 0.000E+00

     total cpu time spent up to now is        6.6 secs

     total energy              =      -2.22141820 Ry
     estimated scf accuracy    <       0.00000609 Ry

     iteration # 22     ecut=    10.00 Ry     beta= 0.70
     Davidson diagonalization with overlap

---- Real-time Memory Report at c_bands before calling an iterative solver
           131 MiB given to the printing process from OS
             0 MiB allocation reported by mallinfo(arena+hblkhd)
           443 MiB available memory on the node where the printing process lives
------------------
     ethr =  2.26E-08,  avg # of iterations =  2.0

     negative rho (up, down):  3.842E-01 0.000E+00

     total cpu time spent up to now is        6.8 secs

     total energy              =      -2.22137285 Ry
     estimated scf accuracy    <       0.00000552 Ry

     iteration # 23     ecut=    10.00 Ry     beta= 0.70
     Davidson diagonalization with overlap

---- Real-time Memory Report at c_bands before calling an iterative solver
           131 MiB given to the printing process from OS
             0 MiB allocation reported by mallinfo(arena+hblkhd)
           443 MiB available memory on the node where the printing process lives
------------------
     ethr =  2.26E-08,  avg # of iterations =  3.0

     negative rho (up, down):  3.841E-01 0.000E+00

     total cpu time spent up to now is        7.0 secs

     total energy              =      -2.22140498 Ry
     estimated scf accuracy    <       0.00000340 Ry

     iteration # 24     ecut=    10.00 Ry     beta= 0.70
     Davidson diagonalization with overlap

---- Real-time Memory Report at c_bands before calling an iterative solver
           131 MiB given to the printing process from OS
             0 MiB allocation reported by mallinfo(arena+hblkhd)
           443 MiB available memory on the node where the printing process lives
------------------
     ethr =  2.26E-08,  avg # of iterations =  2.0

     negative rho (up, down):  3.842E-01 0.000E+00

     total cpu time spent up to now is        7.2 secs

     total energy              =      -2.22135142 Ry
     estimated scf accuracy    <       0.00000292 Ry

     iteration # 25     ecut=    10.00 Ry     beta= 0.70
     Davidson diagonalization with overlap

---- Real-time Memory Report at c_bands before calling an iterative solver
           131 MiB given to the printing process from OS
             0 MiB allocation reported by mallinfo(arena+hblkhd)
           443 MiB available memory on the node where the printing process lives
------------------
     ethr =  2.26E-08,  avg # of iterations =  2.0

     negative rho (up, down):  3.841E-01 0.000E+00

     total cpu time spent up to now is        7.4 secs

     total energy              =      -2.22148391 Ry
     estimated scf accuracy    <       0.00000287 Ry

     iteration # 26     ecut=    10.00 Ry     beta= 0.70
     Davidson diagonalization with overlap

---- Real-time Memory Report at c_bands before calling an iterative solver
           131 MiB given to the printing process from OS
             0 MiB allocation reported by mallinfo(arena+hblkhd)
           443 MiB available memory on the node where the printing process lives
------------------
     ethr =  2.26E-08,  avg # of iterations =  4.0

     negative rho (up, down):  3.842E-01 0.000E+00

     total cpu time spent up to now is        7.7 secs

     total energy              =      -2.22116096 Ry
     estimated scf accuracy    <       0.00000813 Ry

     iteration # 27     ecut=    10.00 Ry     beta= 0.70
     Davidson diagonalization with overlap

---- Real-time Memory Report at c_bands before calling an iterative solver
           131 MiB given to the printing process from OS
             0 MiB allocation reported by mallinfo(arena+hblkhd)
           443 MiB available memory on the node where the printing process lives
------------------
     ethr =  2.26E-08,  avg # of iterations =  5.0

     negative rho (up, down):  3.839E-01 0.000E+00

     total cpu time spent up to now is        7.9 secs

     total energy              =      -2.22131193 Ry
     estimated scf accuracy    <       0.00001165 Ry

     iteration # 28     ecut=    10.00 Ry     beta= 0.70
     Davidson diagonalization with overlap

---- Real-time Memory Report at c_bands before calling an iterative solver
           131 MiB given to the printing process from OS
             0 MiB allocation reported by mallinfo(arena+hblkhd)
           443 MiB available memory on the node where the printing process lives
------------------
     ethr =  2.26E-08,  avg # of iterations =  4.0

     negative rho (up, down):  3.843E-01 0.000E+00

     total cpu time spent up to now is        8.1 secs

     total energy              =      -2.22139769 Ry
     estimated scf accuracy    <       0.00000095 Ry

     iteration # 29     ecut=    10.00 Ry     beta= 0.70
     Davidson diagonalization with overlap

---- Real-time Memory Report at c_bands before calling an iterative solver
           131 MiB given to the printing process from OS
             0 MiB allocation reported by mallinfo(arena+hblkhd)
           443 MiB available memory on the node where the printing process lives
------------------
     ethr =  2.26E-08,  avg # of iterations =  3.0

     negative rho (up, down):  3.843E-01 0.000E+00

     total cpu time spent up to now is        8.4 secs

     total energy              =      -2.22120792 Ry
     estimated scf accuracy    <       0.00000436 Ry

     iteration # 30     ecut=    10.00 Ry     beta= 0.70
     Davidson diagonalization with overlap

---- Real-time Memory Report at c_bands before calling an iterative solver
           131 MiB given to the printing process from OS
             0 MiB allocation reported by mallinfo(arena+hblkhd)
           443 MiB available memory on the node where the printing process lives
------------------
     ethr =  2.26E-08,  avg # of iterations =  4.0

     negative rho (up, down):  3.844E-01 0.000E+00

     total cpu time spent up to now is        8.6 secs

     total energy              =      -2.22130082 Ry
     estimated scf accuracy    <       0.00000294 Ry

     iteration # 31     ecut=    10.00 Ry     beta= 0.70
     Davidson diagonalization with overlap

---- Real-time Memory Report at c_bands before calling an iterative solver
           131 MiB given to the printing process from OS
             0 MiB allocation reported by mallinfo(arena+hblkhd)
           443 MiB available memory on the node where the printing process lives
------------------
     ethr =  2.26E-08,  avg # of iterations =  3.0

     negative rho (up, down):  3.843E-01 0.000E+00

     total cpu time spent up to now is        8.8 secs

     total energy              =      -2.22125103 Ry
     estimated scf accuracy    <       0.00000606 Ry

     iteration # 32     ecut=    10.00 Ry     beta= 0.70
     Davidson diagonalization with overlap

---- Real-time Memory Report at c_bands before calling an iterative solver
           131 MiB given to the printing process from OS
             0 MiB allocation reported by mallinfo(arena+hblkhd)
           443 MiB available memory on the node where the printing process lives
------------------
     ethr =  2.26E-08,  avg # of iterations =  4.0

     negative rho (up, down):  3.840E-01 0.000E+00

     total cpu time spent up to now is        9.1 secs

     total energy              =      -2.22140911 Ry
     estimated scf accuracy    <       0.00000171 Ry

     iteration # 33     ecut=    10.00 Ry     beta= 0.70
     Davidson diagonalization with overlap

---- Real-time Memory Report at c_bands before calling an iterative solver
           131 MiB given to the printing process from OS
             0 MiB allocation reported by mallinfo(arena+hblkhd)
           443 MiB available memory on the node where the printing process lives
------------------
     ethr =  2.26E-08,  avg # of iterations =  3.0

     negative rho (up, down):  3.841E-01 0.000E+00

     total cpu time spent up to now is        9.4 secs

     total energy              =      -2.22146848 Ry
     estimated scf accuracy    <       0.00000155 Ry

     iteration # 34     ecut=    10.00 Ry     beta= 0.70
     Davidson diagonalization with overlap

---- Real-time Memory Report at c_bands before calling an iterative solver
           131 MiB given to the printing process from OS
             0 MiB allocation reported by mallinfo(arena+hblkhd)
           443 MiB available memory on the node where the printing process lives
------------------
     ethr =  2.26E-08,  avg # of iterations =  3.0

     negative rho (up, down):  3.839E-01 0.000E+00

     total cpu time spent up to now is        9.6 secs

     total energy              =      -2.22144110 Ry
     estimated scf accuracy    <       0.00000229 Ry

     iteration # 35     ecut=    10.00 Ry     beta= 0.70
     Davidson diagonalization with overlap

---- Real-time Memory Report at c_bands before calling an iterative solver
           131 MiB given to the printing process from OS
             0 MiB allocation reported by mallinfo(arena+hblkhd)
           443 MiB available memory on the node where the printing process lives
------------------
     ethr =  2.26E-08,  avg # of iterations =  3.0

     negative rho (up, down):  3.839E-01 0.000E+00

     total cpu time spent up to now is        9.9 secs

     total energy              =      -2.22145966 Ry
     estimated scf accuracy    <       0.00000039 Ry

     iteration # 36     ecut=    10.00 Ry     beta= 0.70
     Davidson diagonalization with overlap

---- Real-time Memory Report at c_bands before calling an iterative solver
           131 MiB given to the printing process from OS
             0 MiB allocation reported by mallinfo(arena+hblkhd)
           443 MiB available memory on the node where the printing process lives
------------------
     ethr =  1.94E-08,  avg # of iterations =  2.0

     negative rho (up, down):  3.838E-01 0.000E+00

     total cpu time spent up to now is       10.1 secs

     total energy              =      -2.22153599 Ry
     estimated scf accuracy    <       0.00000026 Ry

     iteration # 37     ecut=    10.00 Ry     beta= 0.70
     Davidson diagonalization with overlap

---- Real-time Memory Report at c_bands before calling an iterative solver
           131 MiB given to the printing process from OS
             0 MiB allocation reported by mallinfo(arena+hblkhd)
           443 MiB available memory on the node where the printing process lives
------------------
     ethr =  1.28E-08,  avg # of iterations =  4.0

     negative rho (up, down):  3.838E-01 0.000E+00

     total cpu time spent up to now is       10.4 secs

     total energy              =      -2.22153993 Ry
     estimated scf accuracy    <       0.00000089 Ry

     iteration # 38     ecut=    10.00 Ry     beta= 0.70
     Davidson diagonalization with overlap

---- Real-time Memory Report at c_bands before calling an iterative solver
           131 MiB given to the printing process from OS
             0 MiB allocation reported by mallinfo(arena+hblkhd)
           443 MiB available memory on the node where the printing process lives
------------------
     ethr =  1.28E-08,  avg # of iterations =  3.0

     negative rho (up, down):  3.839E-01 0.000E+00

     total cpu time spent up to now is       10.6 secs

     total energy              =      -2.22144954 Ry
     estimated scf accuracy    <       0.00000094 Ry

     iteration # 39     ecut=    10.00 Ry     beta= 0.70
     Davidson diagonalization with overlap

---- Real-time Memory Report at c_bands before calling an iterative solver
           131 MiB given to the printing process from OS
             0 MiB allocation reported by mallinfo(arena+hblkhd)
           443 MiB available memory on the node where the printing process lives
------------------
     ethr =  1.28E-08,  avg # of iterations =  4.0

     negative rho (up, down):  3.839E-01 0.000E+00

     total cpu time spent up to now is       10.8 secs

     total energy              =      -2.22147060 Ry
     estimated scf accuracy    <       0.00000038 Ry

     iteration # 40     ecut=    10.00 Ry     beta= 0.70
     Davidson diagonalization with overlap

---- Real-time Memory Report at c_bands before calling an iterative solver
           131 MiB given to the printing process from OS
             0 MiB allocation reported by mallinfo(arena+hblkhd)
           443 MiB available memory on the node where the printing process lives
------------------
     ethr =  1.28E-08,  avg # of iterations =  3.0

     negative rho (up, down):  3.838E-01 0.000E+00

     total cpu time spent up to now is       11.1 secs

     total energy              =      -2.22152309 Ry
     estimated scf accuracy    <       0.00000086 Ry

     iteration # 41     ecut=    10.00 Ry     beta= 0.70
     Davidson diagonalization with overlap

---- Real-time Memory Report at c_bands before calling an iterative solver
           131 MiB given to the printing process from OS
             0 MiB allocation reported by mallinfo(arena+hblkhd)
           443 MiB available memory on the node where the printing process lives
------------------
     ethr =  1.28E-08,  avg # of iterations =  3.0

     negative rho (up, down):  3.839E-01 0.000E+00

     total cpu time spent up to now is       11.3 secs

     total energy              =      -2.22145434 Ry
     estimated scf accuracy    <       0.00000014 Ry

     iteration # 42     ecut=    10.00 Ry     beta= 0.70
     Davidson diagonalization with overlap

---- Real-time Memory Report at c_bands before calling an iterative solver
           131 MiB given to the printing process from OS
             0 MiB allocation reported by mallinfo(arena+hblkhd)
           443 MiB available memory on the node where the printing process lives
------------------
     ethr =  7.01E-09,  avg # of iterations =  3.0

     negative rho (up, down):  3.840E-01 0.000E+00

     total cpu time spent up to now is       11.5 secs

     total energy              =      -2.22141026 Ry
     estimated scf accuracy    <       0.00000013 Ry

     iteration # 43     ecut=    10.00 Ry     beta= 0.70
     Davidson diagonalization with overlap

---- Real-time Memory Report at c_bands before calling an iterative solver
           131 MiB given to the printing process from OS
             0 MiB allocation reported by mallinfo(arena+hblkhd)
           443 MiB available memory on the node where the printing process lives
------------------
     ethr =  6.26E-09,  avg # of iterations =  3.0

     negative rho (up, down):  3.840E-01 0.000E+00

     total cpu time spent up to now is       11.7 secs

     total energy              =      -2.22142410 Ry
     estimated scf accuracy    <       0.00000006 Ry

     iteration # 44     ecut=    10.00 Ry     beta= 0.70
     Davidson diagonalization with overlap

---- Real-time Memory Report at c_bands before calling an iterative solver
           131 MiB given to the printing process from OS
             0 MiB allocation reported by mallinfo(arena+hblkhd)
           443 MiB available memory on the node where the printing process lives
------------------
     ethr =  3.10E-09,  avg # of iterations =  3.0

     negative rho (up, down):  3.840E-01 0.000E+00

     total cpu time spent up to now is       12.0 secs

     total energy              =      -2.22140610 Ry
     estimated scf accuracy    <       0.00000012 Ry

     iteration # 45     ecut=    10.00 Ry     beta= 0.70
     Davidson diagonalization with overlap

---- Real-time Memory Report at c_bands before calling an iterative solver
           131 MiB given to the printing process from OS
             0 MiB allocation reported by mallinfo(arena+hblkhd)
           443 MiB available memory on the node where the printing process lives
------------------
     ethr =  3.10E-09,  avg # of iterations =  2.0

     negative rho (up, down):  3.841E-01 0.000E+00

     total cpu time spent up to now is       12.2 secs

     total energy              =      -2.22139863 Ry
     estimated scf accuracy    <       0.00000014 Ry

     iteration # 46     ecut=    10.00 Ry     beta= 0.70
     Davidson diagonalization with overlap

---- Real-time Memory Report at c_bands before calling an iterative solver
           131 MiB given to the printing process from OS
             0 MiB allocation reported by mallinfo(arena+hblkhd)
           443 MiB available memory on the node where the printing process lives
------------------
     ethr =  3.10E-09,  avg # of iterations =  3.0

     negative rho (up, down):  3.841E-01 0.000E+00

     total cpu time spent up to now is       12.4 secs

     total energy              =      -2.22138849 Ry
     estimated scf accuracy    <       0.00000065 Ry

     iteration # 47     ecut=    10.00 Ry     beta= 0.70
     Davidson diagonalization with overlap

---- Real-time Memory Report at c_bands before calling an iterative solver
           131 MiB given to the printing process from OS
             0 MiB allocation reported by mallinfo(arena+hblkhd)
           443 MiB available memory on the node where the printing process lives
------------------
     ethr =  3.10E-09,  avg # of iterations =  3.0

     negative rho (up, down):  3.839E-01 0.000E+00

     total cpu time spent up to now is       12.6 secs

     total energy              =      -2.22143133 Ry
     estimated scf accuracy    <       0.00000063 Ry

     iteration # 48     ecut=    10.00 Ry     beta= 0.70
     Davidson diagonalization with overlap

---- Real-time Memory Report at c_bands before calling an iterative solver
           131 MiB given to the printing process from OS
             0 MiB allocation reported by mallinfo(arena+hblkhd)
           443 MiB available memory on the node where the printing process lives
------------------
     ethr =  3.10E-09,  avg # of iterations =  3.0

     negative rho (up, down):  3.840E-01 0.000E+00

     total cpu time spent up to now is       12.8 secs

     total energy              =      -2.22141501 Ry
     estimated scf accuracy    <       0.00000033 Ry

     iteration # 49     ecut=    10.00 Ry     beta= 0.70
     Davidson diagonalization with overlap

---- Real-time Memory Report at c_bands before calling an iterative solver
           131 MiB given to the printing process from OS
             0 MiB allocation reported by mallinfo(arena+hblkhd)
           443 MiB available memory on the node where the printing process lives
------------------
     ethr =  3.10E-09,  avg # of iterations =  3.0

     negative rho (up, down):  3.842E-01 0.000E+00

     total cpu time spent up to now is       13.1 secs

     total energy              =      -2.22134212 Ry
     estimated scf accuracy    <       0.00000021 Ry

     iteration # 50     ecut=    10.00 Ry     beta= 0.70
     Davidson diagonalization with overlap

---- Real-time Memory Report at c_bands before calling an iterative solver
           131 MiB given to the printing process from OS
             0 MiB allocation reported by mallinfo(arena+hblkhd)
           443 MiB available memory on the node where the printing process lives
------------------
     ethr =  3.10E-09,  avg # of iterations =  4.0

     negative rho (up, down):  3.843E-01 0.000E+00

     total cpu time spent up to now is       13.3 secs

     total energy              =      -2.22135197 Ry
     estimated scf accuracy    <       0.00000480 Ry

     iteration # 51     ecut=    10.00 Ry     beta= 0.70
     Davidson diagonalization with overlap

---- Real-time Memory Report at c_bands before calling an iterative solver
           131 MiB given to the printing process from OS
             0 MiB allocation reported by mallinfo(arena+hblkhd)
           443 MiB available memory on the node where the printing process lives
------------------
     ethr =  3.10E-09,  avg # of iterations =  3.0

     negative rho (up, down):  3.843E-01 0.000E+00

     total cpu time spent up to now is       13.5 secs

     total energy              =      -2.22129050 Ry
     estimated scf accuracy    <       0.00000424 Ry

     iteration # 52     ecut=    10.00 Ry     beta= 0.70
     Davidson diagonalization with overlap

---- Real-time Memory Report at c_bands before calling an iterative solver
           131 MiB given to the printing process from OS
             0 MiB allocation reported by mallinfo(arena+hblkhd)
           443 MiB available memory on the node where the printing process lives
------------------
     ethr =  3.10E-09,  avg # of iterations =  4.0

     negative rho (up, down):  3.843E-01 0.000E+00

     total cpu time spent up to now is       13.7 secs

     total energy              =      -2.22132842 Ry
     estimated scf accuracy    <       0.00000240 Ry

     iteration # 53     ecut=    10.00 Ry     beta= 0.70
     Davidson diagonalization with overlap

---- Real-time Memory Report at c_bands before calling an iterative solver
           131 MiB given to the printing process from OS
             0 MiB allocation reported by mallinfo(arena+hblkhd)
           443 MiB available memory on the node where the printing process lives
------------------
     ethr =  3.10E-09,  avg # of iterations =  3.0

     negative rho (up, down):  3.844E-01 0.000E+00

     total cpu time spent up to now is       14.0 secs

     total energy              =      -2.22125493 Ry
     estimated scf accuracy    <       0.00000338 Ry

     iteration # 54     ecut=    10.00 Ry     beta= 0.70
     Davidson diagonalization with overlap

---- Real-time Memory Report at c_bands before calling an iterative solver
           131 MiB given to the printing process from OS
             0 MiB allocation reported by mallinfo(arena+hblkhd)
           443 MiB available memory on the node where the printing process lives
------------------
     ethr =  3.10E-09,  avg # of iterations =  4.0

     negative rho (up, down):  3.845E-01 0.000E+00

     total cpu time spent up to now is       14.2 secs

     total energy              =      -2.22129414 Ry
     estimated scf accuracy    <       0.00000175 Ry

     iteration # 55     ecut=    10.00 Ry     beta= 0.70
     Davidson diagonalization with overlap

---- Real-time Memory Report at c_bands before calling an iterative solver
           131 MiB given to the printing process from OS
             0 MiB allocation reported by mallinfo(arena+hblkhd)
           443 MiB available memory on the node where the printing process lives
------------------
     ethr =  3.10E-09,  avg # of iterations =  4.0

     negative rho (up, down):  3.841E-01 0.000E+00

     total cpu time spent up to now is       14.4 secs

     total energy              =      -2.22146870 Ry
     estimated scf accuracy    <       0.00000856 Ry

     iteration # 56     ecut=    10.00 Ry     beta= 0.70
     Davidson diagonalization with overlap

---- Real-time Memory Report at c_bands before calling an iterative solver
           131 MiB given to the printing process from OS
             0 MiB allocation reported by mallinfo(arena+hblkhd)
           443 MiB available memory on the node where the printing process lives
------------------
     ethr =  3.10E-09,  avg # of iterations =  4.0

     negative rho (up, down):  3.840E-01 0.000E+00

     total cpu time spent up to now is       14.6 secs

     total energy              =      -2.22142871 Ry
     estimated scf accuracy    <       0.00000536 Ry

     iteration # 57     ecut=    10.00 Ry     beta= 0.70
     Davidson diagonalization with overlap

---- Real-time Memory Report at c_bands before calling an iterative solver
           131 MiB given to the printing process from OS
             0 MiB allocation reported by mallinfo(arena+hblkhd)
           443 MiB available memory on the node where the printing process lives
------------------
     ethr =  3.10E-09,  avg # of iterations =  4.0

     negative rho (up, down):  3.836E-01 0.000E+00

     total cpu time spent up to now is       14.9 secs

     total energy              =      -2.22155173 Ry
     estimated scf accuracy    <       0.00000183 Ry

     iteration # 58     ecut=    10.00 Ry     beta= 0.70
     Davidson diagonalization with overlap

---- Real-time Memory Report at c_bands before calling an iterative solver
           131 MiB given to the printing process from OS
             0 MiB allocation reported by mallinfo(arena+hblkhd)
           443 MiB available memory on the node where the printing process lives
------------------
     ethr =  3.10E-09,  avg # of iterations =  4.0

     negative rho (up, down):  3.839E-01 0.000E+00

     total cpu time spent up to now is       15.1 secs

     total energy              =      -2.22141646 Ry
     estimated scf accuracy    <       0.00000363 Ry

     iteration # 59     ecut=    10.00 Ry     beta= 0.70
     Davidson diagonalization with overlap

---- Real-time Memory Report at c_bands before calling an iterative solver
           131 MiB given to the printing process from OS
             0 MiB allocation reported by mallinfo(arena+hblkhd)
           443 MiB available memory on the node where the printing process lives
------------------
     ethr =  3.10E-09,  avg # of iterations =  4.0

     negative rho (up, down):  3.837E-01 0.000E+00

     total cpu time spent up to now is       15.3 secs

     total energy              =      -2.22154142 Ry
     estimated scf accuracy    <       0.00000020 Ry

     iteration # 60     ecut=    10.00 Ry     beta= 0.70
     Davidson diagonalization with overlap

---- Real-time Memory Report at c_bands before calling an iterative solver
           131 MiB given to the printing process from OS
             0 MiB allocation reported by mallinfo(arena+hblkhd)
           443 MiB available memory on the node where the printing process lives
------------------
     ethr =  3.10E-09,  avg # of iterations =  4.0

     negative rho (up, down):  3.837E-01 0.000E+00

     total cpu time spent up to now is       15.5 secs

     total energy              =      -2.22156862 Ry
     estimated scf accuracy    <       0.00000178 Ry

     iteration # 61     ecut=    10.00 Ry     beta= 0.70
     Davidson diagonalization with overlap

---- Real-time Memory Report at c_bands before calling an iterative solver
           131 MiB given to the printing process from OS
             0 MiB allocation reported by mallinfo(arena+hblkhd)
           443 MiB available memory on the node where the printing process lives
------------------
     ethr =  3.10E-09,  avg # of iterations =  3.0

     negative rho (up, down):  3.838E-01 0.000E+00

     total cpu time spent up to now is       15.8 secs

     total energy              =      -2.22154494 Ry
     estimated scf accuracy    <       0.00000285 Ry

     iteration # 62     ecut=    10.00 Ry     beta= 0.70
     Davidson diagonalization with overlap

---- Real-time Memory Report at c_bands before calling an iterative solver
           131 MiB given to the printing process from OS
             0 MiB allocation reported by mallinfo(arena+hblkhd)
           443 MiB available memory on the node where the printing process lives
------------------
     ethr =  3.10E-09,  avg # of iterations =  3.0

     negative rho (up, down):  3.838E-01 0.000E+00

     total cpu time spent up to now is       16.0 secs

     total energy              =      -2.22154519 Ry
     estimated scf accuracy    <       0.00000185 Ry

     iteration # 63     ecut=    10.00 Ry     beta= 0.70
     Davidson diagonalization with overlap

---- Real-time Memory Report at c_bands before calling an iterative solver
           131 MiB given to the printing process from OS
             0 MiB allocation reported by mallinfo(arena+hblkhd)
           443 MiB available memory on the node where the printing process lives
------------------
     ethr =  3.10E-09,  avg # of iterations =  3.0

     negative rho (up, down):  3.838E-01 0.000E+00

     total cpu time spent up to now is       16.2 secs

     total energy              =      -2.22152746 Ry
     estimated scf accuracy    <       0.00000225 Ry

     iteration # 64     ecut=    10.00 Ry     beta= 0.70
     Davidson diagonalization with overlap

---- Real-time Memory Report at c_bands before calling an iterative solver
           131 MiB given to the printing process from OS
             0 MiB allocation reported by mallinfo(arena+hblkhd)
           443 MiB available memory on the node where the printing process lives
------------------
     ethr =  3.10E-09,  avg # of iterations =  3.0

     negative rho (up, down):  3.838E-01 0.000E+00

     total cpu time spent up to now is       16.4 secs

     total energy              =      -2.22151865 Ry
     estimated scf accuracy    <       0.00000210 Ry

     iteration # 65     ecut=    10.00 Ry     beta= 0.70
     Davidson diagonalization with overlap

---- Real-time Memory Report at c_bands before calling an iterative solver
           131 MiB given to the printing process from OS
             0 MiB allocation reported by mallinfo(arena+hblkhd)
           443 MiB available memory on the node where the printing process lives
------------------
     ethr =  3.10E-09,  avg # of iterations =  3.0

     negative rho (up, down):  3.838E-01 0.000E+00

     total cpu time spent up to now is       16.7 secs

     total energy              =      -2.22147025 Ry
     estimated scf accuracy    <       0.00000267 Ry

     iteration # 66     ecut=    10.00 Ry     beta= 0.70
     Davidson diagonalization with overlap

---- Real-time Memory Report at c_bands before calling an iterative solver
           131 MiB given to the printing process from OS
             0 MiB allocation reported by mallinfo(arena+hblkhd)
           443 MiB available memory on the node where the printing process lives
------------------
     ethr =  3.10E-09,  avg # of iterations =  5.0

     negative rho (up, down):  3.839E-01 0.000E+00

     total cpu time spent up to now is       16.9 secs

     total energy              =      -2.22144088 Ry
     estimated scf accuracy    <       0.00000039 Ry

     iteration # 67     ecut=    10.00 Ry     beta= 0.70
     Davidson diagonalization with overlap

---- Real-time Memory Report at c_bands before calling an iterative solver
           131 MiB given to the printing process from OS
             0 MiB allocation reported by mallinfo(arena+hblkhd)
           443 MiB available memory on the node where the printing process lives
------------------
     ethr =  3.10E-09,  avg # of iterations =  3.0

     negative rho (up, down):  3.840E-01 0.000E+00

     total cpu time spent up to now is       17.1 secs

     total energy              =      -2.22143312 Ry
     estimated scf accuracy    <       0.00000032 Ry

     iteration # 68     ecut=    10.00 Ry     beta= 0.70
     Davidson diagonalization with overlap

---- Real-time Memory Report at c_bands before calling an iterative solver
           131 MiB given to the printing process from OS
             0 MiB allocation reported by mallinfo(arena+hblkhd)
           443 MiB available memory on the node where the printing process lives
------------------
     ethr =  3.10E-09,  avg # of iterations =  3.0

     negative rho (up, down):  3.840E-01 0.000E+00

     total cpu time spent up to now is       17.4 secs

     total energy              =      -2.22144970 Ry
     estimated scf accuracy    <       0.00000043 Ry

     iteration # 69     ecut=    10.00 Ry     beta= 0.70
     Davidson diagonalization with overlap

---- Real-time Memory Report at c_bands before calling an iterative solver
           131 MiB given to the printing process from OS
             0 MiB allocation reported by mallinfo(arena+hblkhd)
           443 MiB available memory on the node where the printing process lives
------------------
     ethr =  3.10E-09,  avg # of iterations =  4.0

     negative rho (up, down):  3.841E-01 0.000E+00

     total cpu time spent up to now is       17.6 secs

     total energy              =      -2.22139463 Ry
     estimated scf accuracy    <       0.00000002 Ry

     iteration # 70     ecut=    10.00 Ry     beta= 0.70
     Davidson diagonalization with overlap

---- Real-time Memory Report at c_bands before calling an iterative solver
           131 MiB given to the printing process from OS
             0 MiB allocation reported by mallinfo(arena+hblkhd)
           443 MiB available memory on the node where the printing process lives
------------------
     ethr =  8.89E-10,  avg # of iterations =  3.0

     negative rho (up, down):  3.840E-01 0.000E+00

     total cpu time spent up to now is       17.8 secs

     total energy              =      -2.22145395 Ry
     estimated scf accuracy    <       0.00000026 Ry

     iteration # 71     ecut=    10.00 Ry     beta= 0.70
     Davidson diagonalization with overlap

---- Real-time Memory Report at c_bands before calling an iterative solver
           131 MiB given to the printing process from OS
             0 MiB allocation reported by mallinfo(arena+hblkhd)
           443 MiB available memory on the node where the printing process lives
------------------
     ethr =  8.89E-10,  avg # of iterations =  3.0

     negative rho (up, down):  3.837E-01 0.000E+00

     total cpu time spent up to now is       18.1 secs

     total energy              =      -2.22157484 Ry
     estimated scf accuracy    <       0.00000002 Ry

     iteration # 72     ecut=    10.00 Ry     beta= 0.70
     Davidson diagonalization with overlap

---- Real-time Memory Report at c_bands before calling an iterative solver
           131 MiB given to the printing process from OS
             0 MiB allocation reported by mallinfo(arena+hblkhd)
           443 MiB available memory on the node where the printing process lives
------------------
     ethr =  7.66E-10,  avg # of iterations =  4.0

     negative rho (up, down):  3.838E-01 0.000E+00

     total cpu time spent up to now is       18.3 secs

     total energy              =      -2.22148631 Ry
     estimated scf accuracy    <       0.00000092 Ry

     iteration # 73     ecut=    10.00 Ry     beta= 0.70
     Davidson diagonalization with overlap

---- Real-time Memory Report at c_bands before calling an iterative solver
           131 MiB given to the printing process from OS
             0 MiB allocation reported by mallinfo(arena+hblkhd)
           443 MiB available memory on the node where the printing process lives
------------------
     ethr =  7.66E-10,  avg # of iterations =  4.0

     negative rho (up, down):  3.839E-01 0.000E+00

     total cpu time spent up to now is       18.6 secs

     total energy              =      -2.22149079 Ry
     estimated scf accuracy    <       0.00000010 Ry

     iteration # 74     ecut=    10.00 Ry     beta= 0.70
     Davidson diagonalization with overlap

---- Real-time Memory Report at c_bands before calling an iterative solver
           131 MiB given to the printing process from OS
             0 MiB allocation reported by mallinfo(arena+hblkhd)
           443 MiB available memory on the node where the printing process lives
------------------
     ethr =  7.66E-10,  avg # of iterations =  4.0

     negative rho (up, down):  3.839E-01 0.000E+00

     total cpu time spent up to now is       18.8 secs

     total energy              =      -2.22150165 Ry
     estimated scf accuracy    <       0.00000036 Ry

     iteration # 75     ecut=    10.00 Ry     beta= 0.70
     Davidson diagonalization with overlap

---- Real-time Memory Report at c_bands before calling an iterative solver
           131 MiB given to the printing process from OS
             0 MiB allocation reported by mallinfo(arena+hblkhd)
           443 MiB available memory on the node where the printing process lives
------------------
     ethr =  7.66E-10,  avg # of iterations =  4.0

     negative rho (up, down):  3.839E-01 0.000E+00

     total cpu time spent up to now is       19.0 secs

     total energy              =      -2.22149065 Ry
     estimated scf accuracy    <       0.00000004 Ry

     iteration # 76     ecut=    10.00 Ry     beta= 0.70
     Davidson diagonalization with overlap

---- Real-time Memory Report at c_bands before calling an iterative solver
           131 MiB given to the printing process from OS
             0 MiB allocation reported by mallinfo(arena+hblkhd)
           443 MiB available memory on the node where the printing process lives
------------------
     ethr =  7.66E-10,  avg # of iterations =  3.0

     negative rho (up, down):  3.839E-01 0.000E+00

     total cpu time spent up to now is       19.2 secs

     total energy              =      -2.22150028 Ry
     estimated scf accuracy    <       0.00000009 Ry

     iteration # 77     ecut=    10.00 Ry     beta= 0.70
     Davidson diagonalization with overlap

---- Real-time Memory Report at c_bands before calling an iterative solver
           131 MiB given to the printing process from OS
             0 MiB allocation reported by mallinfo(arena+hblkhd)
           443 MiB available memory on the node where the printing process lives
------------------
     ethr =  7.66E-10,  avg # of iterations =  3.0

     negative rho (up, down):  3.839E-01 0.000E+00

     total cpu time spent up to now is       19.5 secs

     total energy              =      -2.22147803 Ry
     estimated scf accuracy    <       0.00000011 Ry

     iteration # 78     ecut=    10.00 Ry     beta= 0.70
     Davidson diagonalization with overlap

---- Real-time Memory Report at c_bands before calling an iterative solver
           131 MiB given to the printing process from OS
             0 MiB allocation reported by mallinfo(arena+hblkhd)
           443 MiB available memory on the node where the printing process lives
------------------
     ethr =  7.66E-10,  avg # of iterations =  4.0

     negative rho (up, down):  3.839E-01 0.000E+00

     total cpu time spent up to now is       19.7 secs

     total energy              =      -2.22148902 Ry
     estimated scf accuracy    <       0.00000003 Ry

     iteration # 79     ecut=    10.00 Ry     beta= 0.70
     Davidson diagonalization with overlap

---- Real-time Memory Report at c_bands before calling an iterative solver
           131 MiB given to the printing process from OS
             0 MiB allocation reported by mallinfo(arena+hblkhd)
           443 MiB available memory on the node where the printing process lives
------------------
     ethr =  7.66E-10,  avg # of iterations =  3.0

     negative rho (up, down):  3.839E-01 0.000E+00

     total cpu time spent up to now is       19.9 secs

     total energy              =      -2.22150087 Ry
     estimated scf accuracy    <       0.00000004 Ry

     iteration # 80     ecut=    10.00 Ry     beta= 0.70
     Davidson diagonalization with overlap

---- Real-time Memory Report at c_bands before calling an iterative solver
           131 MiB given to the printing process from OS
             0 MiB allocation reported by mallinfo(arena+hblkhd)
           443 MiB available memory on the node where the printing process lives
------------------
     ethr =  7.66E-10,  avg # of iterations =  3.0

     negative rho (up, down):  3.839E-01 0.000E+00

     total cpu time spent up to now is       20.1 secs

     total energy              =      -2.22147715 Ry
     estimated scf accuracy    <       0.00000002 Ry

     iteration # 81     ecut=    10.00 Ry     beta= 0.70
     Davidson diagonalization with overlap

---- Real-time Memory Report at c_bands before calling an iterative solver
           131 MiB given to the printing process from OS
             0 MiB allocation reported by mallinfo(arena+hblkhd)
           443 MiB available memory on the node where the printing process lives
------------------
     ethr =  7.66E-10,  avg # of iterations =  3.0

     negative rho (up, down):  3.840E-01 0.000E+00

     total cpu time spent up to now is       20.4 secs

     total energy              =      -2.22146412 Ry
     estimated scf accuracy    <       0.00000002 Ry

     iteration # 82     ecut=    10.00 Ry     beta= 0.70
     Davidson diagonalization with overlap

---- Real-time Memory Report at c_bands before calling an iterative solver
           131 MiB given to the printing process from OS
             0 MiB allocation reported by mallinfo(arena+hblkhd)
           443 MiB available memory on the node where the printing process lives
------------------
     ethr =  7.66E-10,  avg # of iterations =  3.0

     negative rho (up, down):  3.839E-01 0.000E+00

     total cpu time spent up to now is       20.6 secs

     total energy              =      -2.22147291 Ry
     estimated scf accuracy    <       0.00000013 Ry

     iteration # 83     ecut=    10.00 Ry     beta= 0.70
     Davidson diagonalization with overlap

---- Real-time Memory Report at c_bands before calling an iterative solver
           131 MiB given to the printing process from OS
             0 MiB allocation reported by mallinfo(arena+hblkhd)
           441 MiB available memory on the node where the printing process lives
------------------
     ethr =  7.66E-10,  avg # of iterations =  4.0

     negative rho (up, down):  3.840E-01 0.000E+00

     total cpu time spent up to now is       20.8 secs

     total energy              =      -2.22146489 Ry
     estimated scf accuracy    <       0.00000007 Ry

     iteration # 84     ecut=    10.00 Ry     beta= 0.70
     Davidson diagonalization with overlap

---- Real-time Memory Report at c_bands before calling an iterative solver
           131 MiB given to the printing process from OS
             0 MiB allocation reported by mallinfo(arena+hblkhd)
           441 MiB available memory on the node where the printing process lives
------------------
     ethr =  7.66E-10,  avg # of iterations =  4.0

     negative rho (up, down):  3.839E-01 0.000E+00

     total cpu time spent up to now is       21.0 secs

     total energy              =      -2.22148329 Ry
     estimated scf accuracy    <       0.00000004 Ry

     iteration # 85     ecut=    10.00 Ry     beta= 0.70
     Davidson diagonalization with overlap

---- Real-time Memory Report at c_bands before calling an iterative solver
           131 MiB given to the printing process from OS
             0 MiB allocation reported by mallinfo(arena+hblkhd)
           441 MiB available memory on the node where the printing process lives
------------------
     ethr =  7.66E-10,  avg # of iterations =  4.0

     negative rho (up, down):  3.839E-01 0.000E+00

     total cpu time spent up to now is       21.3 secs

     total energy              =      -2.22147609 Ry
     estimated scf accuracy    <       0.00000007 Ry

     iteration # 86     ecut=    10.00 Ry     beta= 0.70
     Davidson diagonalization with overlap

---- Real-time Memory Report at c_bands before calling an iterative solver
           131 MiB given to the printing process from OS
             0 MiB allocation reported by mallinfo(arena+hblkhd)
           441 MiB available memory on the node where the printing process lives
------------------
     ethr =  7.66E-10,  avg # of iterations =  3.0

     negative rho (up, down):  3.839E-01 0.000E+00

     total cpu time spent up to now is       21.5 secs

     total energy              =      -2.22148946 Ry
     estimated scf accuracy    <       0.00000004 Ry

     iteration # 87     ecut=    10.00 Ry     beta= 0.70
     Davidson diagonalization with overlap

---- Real-time Memory Report at c_bands before calling an iterative solver
           131 MiB given to the printing process from OS
             0 MiB allocation reported by mallinfo(arena+hblkhd)
           441 MiB available memory on the node where the printing process lives
------------------
     ethr =  7.66E-10,  avg # of iterations =  3.0

     negative rho (up, down):  3.839E-01 0.000E+00

     total cpu time spent up to now is       21.7 secs

     total energy              =      -2.22148292 Ry
     estimated scf accuracy    <       0.00000005 Ry

     iteration # 88     ecut=    10.00 Ry     beta= 0.70
     Davidson diagonalization with overlap

---- Real-time Memory Report at c_bands before calling an iterative solver
           131 MiB given to the printing process from OS
             0 MiB allocation reported by mallinfo(arena+hblkhd)
           441 MiB available memory on the node where the printing process lives
------------------
     ethr =  7.66E-10,  avg # of iterations =  3.0

     negative rho (up, down):  3.839E-01 0.000E+00

     total cpu time spent up to now is       21.9 secs

     total energy              =      -2.22147249 Ry
     estimated scf accuracy    <       0.00000003 Ry

     iteration # 89     ecut=    10.00 Ry     beta= 0.70
     Davidson diagonalization with overlap

---- Real-time Memory Report at c_bands before calling an iterative solver
           131 MiB given to the printing process from OS
             0 MiB allocation reported by mallinfo(arena+hblkhd)
           441 MiB available memory on the node where the printing process lives
------------------
     ethr =  7.66E-10,  avg # of iterations =  3.0

     negative rho (up, down):  3.839E-01 0.000E+00

     total cpu time spent up to now is       22.2 secs

     total energy              =      -2.22148202 Ry
     estimated scf accuracy    <       0.00000004 Ry

     iteration # 90     ecut=    10.00 Ry     beta= 0.70
     Davidson diagonalization with overlap

---- Real-time Memory Report at c_bands before calling an iterative solver
           131 MiB given to the printing process from OS
             0 MiB allocation reported by mallinfo(arena+hblkhd)
           441 MiB available memory on the node where the printing process lives
------------------
     ethr =  7.66E-10,  avg # of iterations =  3.0

     negative rho (up, down):  3.839E-01 0.000E+00

     total cpu time spent up to now is       22.4 secs

     total energy              =      -2.22148172 Ry
     estimated scf accuracy    <       0.00000003 Ry

     iteration # 91     ecut=    10.00 Ry     beta= 0.70
     Davidson diagonalization with overlap

---- Real-time Memory Report at c_bands before calling an iterative solver
           131 MiB given to the printing process from OS
             0 MiB allocation reported by mallinfo(arena+hblkhd)
           441 MiB available memory on the node where the printing process lives
------------------
     ethr =  7.66E-10,  avg # of iterations =  1.0

     negative rho (up, down):  3.839E-01 0.000E+00

     total cpu time spent up to now is       22.6 secs

     total energy              =      -2.22148629 Ry
     estimated scf accuracy    <       0.00000003 Ry

     iteration # 92     ecut=    10.00 Ry     beta= 0.70
     Davidson diagonalization with overlap

---- Real-time Memory Report at c_bands before calling an iterative solver
           131 MiB given to the printing process from OS
             0 MiB allocation reported by mallinfo(arena+hblkhd)
           441 MiB available memory on the node where the printing process lives
------------------
     ethr =  7.66E-10,  avg # of iterations =  3.0

     negative rho (up, down):  3.841E-01 0.000E+00

     total cpu time spent up to now is       22.8 secs

     total energy              =      -2.22146350 Ry
     estimated scf accuracy    <       0.00000006 Ry

     iteration # 93     ecut=    10.00 Ry     beta= 0.70
     Davidson diagonalization with overlap

---- Real-time Memory Report at c_bands before calling an iterative solver
           131 MiB given to the printing process from OS
             0 MiB allocation reported by mallinfo(arena+hblkhd)
           441 MiB available memory on the node where the printing process lives
------------------
     ethr =  7.66E-10,  avg # of iterations =  3.0

     negative rho (up, down):  3.842E-01 0.000E+00

     total cpu time spent up to now is       23.0 secs

     total energy              =      -2.22143589 Ry
     estimated scf accuracy    <       0.00000021 Ry

     iteration # 94     ecut=    10.00 Ry     beta= 0.70
     Davidson diagonalization with overlap

---- Real-time Memory Report at c_bands before calling an iterative solver
           131 MiB given to the printing process from OS
             0 MiB allocation reported by mallinfo(arena+hblkhd)
           441 MiB available memory on the node where the printing process lives
------------------
     ethr =  7.66E-10,  avg # of iterations =  3.0

     negative rho (up, down):  3.837E-01 0.000E+00

     total cpu time spent up to now is       23.2 secs

     total energy              =      -2.22159555 Ry
     estimated scf accuracy    <       0.00000028 Ry

     iteration # 95     ecut=    10.00 Ry     beta= 0.70
     Davidson diagonalization with overlap

---- Real-time Memory Report at c_bands before calling an iterative solver
           131 MiB given to the printing process from OS
             0 MiB allocation reported by mallinfo(arena+hblkhd)
           441 MiB available memory on the node where the printing process lives
------------------
     ethr =  7.66E-10,  avg # of iterations =  3.0

     negative rho (up, down):  3.838E-01 0.000E+00

     total cpu time spent up to now is       23.5 secs

     total energy              =      -2.22151065 Ry
     estimated scf accuracy    <       0.00000020 Ry

     iteration # 96     ecut=    10.00 Ry     beta= 0.70
     Davidson diagonalization with overlap

---- Real-time Memory Report at c_bands before calling an iterative solver
           131 MiB given to the printing process from OS
             0 MiB allocation reported by mallinfo(arena+hblkhd)
           441 MiB available memory on the node where the printing process lives
------------------
     ethr =  7.66E-10,  avg # of iterations =  4.0

     negative rho (up, down):  3.839E-01 0.000E+00

     total cpu time spent up to now is       23.7 secs

     total energy              =      -2.22150532 Ry
     estimated scf accuracy    <       0.00000003 Ry

     iteration # 97     ecut=    10.00 Ry     beta= 0.70
     Davidson diagonalization with overlap

---- Real-time Memory Report at c_bands before calling an iterative solver
           131 MiB given to the printing process from OS
             0 MiB allocation reported by mallinfo(arena+hblkhd)
           441 MiB available memory on the node where the printing process lives
------------------
     ethr =  7.66E-10,  avg # of iterations =  2.0

     negative rho (up, down):  3.839E-01 0.000E+00

     total cpu time spent up to now is       23.9 secs

     total energy              =      -2.22150714 Ry
     estimated scf accuracy    <       0.00000003 Ry

     iteration # 98     ecut=    10.00 Ry     beta= 0.70
     Davidson diagonalization with overlap

---- Real-time Memory Report at c_bands before calling an iterative solver
           131 MiB given to the printing process from OS
             0 MiB allocation reported by mallinfo(arena+hblkhd)
           441 MiB available memory on the node where the printing process lives
------------------
     ethr =  7.66E-10,  avg # of iterations =  2.0

     negative rho (up, down):  3.839E-01 0.000E+00

     total cpu time spent up to now is       24.1 secs

     total energy              =      -2.22150461 Ry
     estimated scf accuracy    <       0.00000002 Ry

     iteration # 99     ecut=    10.00 Ry     beta= 0.70
     Davidson diagonalization with overlap

---- Real-time Memory Report at c_bands before calling an iterative solver
           131 MiB given to the printing process from OS
             0 MiB allocation reported by mallinfo(arena+hblkhd)
           441 MiB available memory on the node where the printing process lives
------------------
     ethr =  7.66E-10,  avg # of iterations =  3.0

     negative rho (up, down):  3.839E-01 0.000E+00

     total cpu time spent up to now is       24.3 secs

     total energy              =      -2.22150480 Ry
     estimated scf accuracy    <       0.00000003 Ry

     iteration #100     ecut=    10.00 Ry     beta= 0.70
     Davidson diagonalization with overlap

---- Real-time Memory Report at c_bands before calling an iterative solver
           131 MiB given to the printing process from OS
             0 MiB allocation reported by mallinfo(arena+hblkhd)
           441 MiB available memory on the node where the printing process lives
------------------
     ethr =  7.66E-10,  avg # of iterations =  3.0

     negative rho (up, down):  3.839E-01 0.000E+00

     total cpu time spent up to now is       24.6 secs

     total energy              =      -2.22150511 Ry
     estimated scf accuracy    <       0.00000004 Ry

     End of self-consistent calculation

     convergence NOT achieved after 100 iterations: stopping

     Writing config to output data dir ./.save/
     Message from routine punch:
     wavefunctions written to file

     init_run     :      0.20s CPU      0.23s WALL (       1 calls)
     electrons    :     24.04s CPU     24.12s WALL (       2 calls)
     update_pot   :      0.14s CPU      0.15s WALL (       1 calls)
     forces       :      0.04s CPU      0.05s WALL (       1 calls)

     Called by init_run:
     wfcinit      :      0.02s CPU      0.02s WALL (       1 calls)
     wfcinit:atom :      0.00s CPU      0.00s WALL (       1 calls)
     wfcinit:wfcr :      0.01s CPU      0.01s WALL (       1 calls)
     potinit      :      0.13s CPU      0.14s WALL (       1 calls)
     hinit0       :      0.01s CPU      0.01s WALL (       1 calls)

     Called by electrons:
     c_bands      :      4.90s CPU      4.91s WALL (     105 calls)
     sum_band     :      2.63s CPU      2.65s WALL (     105 calls)
     v_of_rho     :     12.98s CPU     13.02s WALL (     107 calls)
     v_h          :      0.69s CPU      0.69s WALL (     107 calls)
     v_xc         :     12.28s CPU     12.32s WALL (     107 calls)
     newd         :      0.86s CPU      0.87s WALL (     107 calls)
     mix_rho      :      2.65s CPU      2.66s WALL (     105 calls)

     Called by c_bands:
     init_us_2    :      0.08s CPU      0.08s WALL (     211 calls)
     init_us_2:cp :      0.08s CPU      0.08s WALL (     211 calls)
     cegterg      :      4.84s CPU      4.85s WALL (     105 calls)

     Called by sum_band:
     sum_band:wei :      0.00s CPU      0.00s WALL (     105 calls)
     sum_band:loo :      0.72s CPU      0.73s WALL (     105 calls)
     sum_band:buf :      0.00s CPU      0.00s WALL (     105 calls)
     sum_band:ini :      0.04s CPU      0.04s WALL (     105 calls)
     sum_band:cal :      0.01s CPU      0.01s WALL (     105 calls)
     sum_band:bec :      0.00s CPU      0.00s WALL (     105 calls)
     addusdens    :      0.24s CPU      0.24s WALL (     105 calls)
     addusd:skk   :      0.07s CPU      0.07s WALL (     105 calls)
     addusd:dgemm :      0.05s CPU      0.05s WALL (     105 calls)
     addusd:qvan2 :      0.06s CPU      0.06s WALL (     105 calls)

     Called by *egterg:
     cdiaghg      :      0.01s CPU      0.01s WALL (     473 calls)
     cegterg:over :      0.07s CPU      0.07s WALL (     369 calls)
     cegterg:upda :      0.05s CPU      0.05s WALL (     369 calls)
     cegterg:last :      0.10s CPU      0.10s WALL (     271 calls)
     h_psi        :      4.52s CPU      4.53s WALL (     475 calls)
     s_psi        :      0.03s CPU      0.03s WALL (     475 calls)
     g_psi        :      0.02s CPU      0.02s WALL (     369 calls)

     Called by h_psi:
     h_psi:calbec :      0.04s CPU      0.04s WALL (     475 calls)
     vloc_psi     :      4.43s CPU      4.45s WALL (     475 calls)
     add_vuspsi   :      0.03s CPU      0.03s WALL (     475 calls)

     General routines
     calbec       :      0.05s CPU      0.05s WALL (     584 calls)
     fft          :      6.04s CPU      6.05s WALL (    1180 calls)
     ffts         :      0.54s CPU      0.54s WALL (     105 calls)
     fftw         :      4.61s CPU      4.63s WALL (    1630 calls)
     davcio       :      0.00s CPU      0.01s WALL (      19 calls)


     PWSCF        :     24.47s CPU     24.61s WALL


   This run was terminated on:   3: 0:16  28Feb2022            

=------------------------------------------------------------------------------=
   JOB DONE.
=------------------------------------------------------------------------------=
