
     Program PWSCF v.7.0 starts on 28Feb2022 at  1: 0:26 

     This program is part of the open-source Quantum ESPRESSO suite
     for quantum simulation of materials; please cite
         "P. Giannozzi et al., J. Phys.:Condens. Matter 21 395502 (2009);
         "P. Giannozzi et al., J. Phys.:Condens. Matter 29 465901 (2017);
         "P. Giannozzi et al., J. Chem. Phys. 152 154105 (2020);
          URL http://www.quantum-espresso.org", 
     in publications or presentations arising from this work. More details at
     http://www.quantum-espresso.org/quote

     Serial version
     295 MiB available memory on the printing compute node when the environment starts

     Waiting for input...
     Reading input from standard input

     Current dimensions of program PWSCF are:
     Max number of different atomic species (ntypx) = 10
     Max number of k-points (npk) =  40000
     Max angular momentum in pseudopotentials (lmaxx) =  4

     File ./.update deleted, as requested

     File ./.bfgs deleted, as requested

    ============================================================
    |  pseudopotential report for atomic species:  1           |
    |        pseudo potential version   7   3   2              |
    ------------------------------------------------------------
    |  hydrogen            PBE                  exchange-corr  |
    |  z =   1.    zv( 1) =   1.    exfact =   5.00000         |
    |  ifpcor =  0           atomic energy =  -0.91772 Ry      |
    |  index    orbital      occupation    energy              |
    |    1        100           1.00       -0.48               |
    |  rinner =  0.5000                                        |
    |    new generation scheme:                                |
    |    nbeta =  1     kkbeta =  271     rcloc =    0.6000    |
    |    ibeta    l     epsilon   rcut                         |
    |      1       0      -0.48   0.80                         |
    ============================================================

     IMPORTANT: XC functional enforced from input :
     Exchange-correlation= BLYP
                           (   1   3   1   3   0   0   0)
     Any further DFT definition will be discarded
     Please, verify this is what you really want


     G-vector sticks info
     --------------------
     sticks:   dense  smooth     PW     G-vecs:    dense   smooth      PW
     Sum        5721    5721   1565               326029   326029   45961

     Using Slab Decomposition



     bravais-lattice index     =            1
     lattice parameter (alat)  =      30.0000  a.u.
     unit-cell volume          =   27000.0000 (a.u.)^3
     number of atoms/cell      =            2
     number of atomic types    =            1
     number of electrons       =         2.00
     number of Kohn-Sham states=            2
     kinetic-energy cutoff     =      20.0000  Ry
     charge density cutoff     =      80.0000  Ry
     scf convergence threshold =      1.0E-08
     mixing beta               =       0.7000
     number of iterations used =            8  plain     mixing
     energy convergence thresh.=      1.0E-04
     force convergence thresh. =      1.0E-03
     Exchange-correlation= BLYP
                           (   1   3   1   3   0   0   0)
     nstep                     =           50


     celldm(1)=  30.000000  celldm(2)=   0.000000  celldm(3)=   0.000000
     celldm(4)=   0.000000  celldm(5)=   0.000000  celldm(6)=   0.000000

     crystal axes: (cart. coord. in units of alat)
               a(1) = (   1.000000   0.000000   0.000000 )  
               a(2) = (   0.000000   1.000000   0.000000 )  
               a(3) = (   0.000000   0.000000   1.000000 )  

     reciprocal axes: (cart. coord. in units 2 pi/alat)
               b(1) = (  1.000000  0.000000  0.000000 )  
               b(2) = (  0.000000  1.000000  0.000000 )  
               b(3) = (  0.000000  0.000000  1.000000 )  


     PseudoPot. # 1 for hy read from file:
     /root/q-e/pseudo/H_US.van
     MD5 check sum: a9a9bfe98ff56cf4de197d71fc46bb44
     Pseudo is Ultrasoft, Zval =  1.0
     Generated by Vanderbilt code, v. 7.3.2
     Using radial grid of  399 points,  1 beta functions with: 
                l(1) =   0
     Q(r) pseudized with  8 coefficients,  rinner =    0.500

     atomic species   valence    mass     pseudopotential
        H              1.00     1.00784     hy( 1.00)

      8 Sym. Ops. (no inversion) found


                                    s                        frac. trans.

      isym =  1     identity                                     

 cryst.   s( 1) = (     1          0          0      )
                  (     0          1          0      )
                  (     0          0          1      )

 cart.    s( 1) = (  1.0000000  0.0000000  0.0000000 )
                  (  0.0000000  1.0000000  0.0000000 )
                  (  0.0000000  0.0000000  1.0000000 )


      isym =  2     180 deg rotation - cart. axis [1,0,0]        

 cryst.   s( 2) = (     1          0          0      )
                  (     0         -1          0      )
                  (     0          0         -1      )

 cart.    s( 2) = (  1.0000000  0.0000000  0.0000000 )
                  (  0.0000000 -1.0000000  0.0000000 )
                  (  0.0000000  0.0000000 -1.0000000 )


      isym =  3      90 deg rotation - cart. axis [-1,0,0]       

 cryst.   s( 3) = (     1          0          0      )
                  (     0          0         -1      )
                  (     0          1          0      )

 cart.    s( 3) = (  1.0000000  0.0000000  0.0000000 )
                  (  0.0000000  0.0000000  1.0000000 )
                  (  0.0000000 -1.0000000  0.0000000 )


      isym =  4      90 deg rotation - cart. axis [1,0,0]        

 cryst.   s( 4) = (     1          0          0      )
                  (     0          0          1      )
                  (     0         -1          0      )

 cart.    s( 4) = (  1.0000000  0.0000000  0.0000000 )
                  (  0.0000000  0.0000000 -1.0000000 )
                  (  0.0000000  1.0000000  0.0000000 )


      isym =  5     inv. 180 deg rotation - cart. axis [0,0,1]   

 cryst.   s( 5) = (     1          0          0      )
                  (     0          1          0      )
                  (     0          0         -1      )

 cart.    s( 5) = (  1.0000000  0.0000000  0.0000000 )
                  (  0.0000000  1.0000000  0.0000000 )
                  (  0.0000000  0.0000000 -1.0000000 )


      isym =  6     inv. 180 deg rotation - cart. axis [0,1,0]   

 cryst.   s( 6) = (     1          0          0      )
                  (     0         -1          0      )
                  (     0          0          1      )

 cart.    s( 6) = (  1.0000000  0.0000000  0.0000000 )
                  (  0.0000000 -1.0000000  0.0000000 )
                  (  0.0000000  0.0000000  1.0000000 )


      isym =  7     inv. 180 deg rotation - cart. axis [0,1,1]   

 cryst.   s( 7) = (     1          0          0      )
                  (     0          0         -1      )
                  (     0         -1          0      )

 cart.    s( 7) = (  1.0000000  0.0000000  0.0000000 )
                  (  0.0000000  0.0000000 -1.0000000 )
                  (  0.0000000 -1.0000000  0.0000000 )


      isym =  8     inv. 180 deg rotation - cart. axis [0,1,-1]  

 cryst.   s( 8) = (     1          0          0      )
                  (     0          0          1      )
                  (     0          1          0      )

 cart.    s( 8) = (  1.0000000  0.0000000  0.0000000 )
                  (  0.0000000  0.0000000  1.0000000 )
                  (  0.0000000  1.0000000  0.0000000 )


     point group C_4v (4mm) 
     there are  5 classes
     the character table:

       E     2C4   C2    2s_v  2s_d 
A_1    1.00  1.00  1.00  1.00  1.00
A_2    1.00  1.00  1.00 -1.00 -1.00
B_1    1.00 -1.00  1.00  1.00 -1.00
B_2    1.00 -1.00  1.00 -1.00  1.00
E      2.00  0.00 -2.00  0.00  0.00

     the symmetry operations in each class and the name of the first element:

     E        1
          identity                                               
     2C4      3    4
           90 deg rotation - cart. axis [-1,0,0]                 
     C2       2
          180 deg rotation - cart. axis [1,0,0]                  
     2s_v     5    6
          inv. 180 deg rotation - cart. axis [0,0,1]             
     2s_d     7    8
          inv. 180 deg rotation - cart. axis [0,1,1]             

   Cartesian axes

     site n.     atom                  positions (alat units)
         1           H   tau(   1) = (   0.0000000   0.0000000   0.0000000  )
         2           H   tau(   2) = (   0.0629909   0.0000000   0.0000000  )

   Crystallographic axes

     site n.     atom                  positions (cryst. coord.)
         1           H   tau(   1) = (  0.0000000  0.0000000  0.0000000  )
         2           H   tau(   2) = (  0.0629909  0.0000000  0.0000000  )

     number of k points=     1
                       cart. coord. in units 2pi/alat
        k(    1) = (  -0.5000000  -0.5000000  -0.5000000), wk =   2.0000000

                       cryst. coord.
        k(    1) = (  -0.5000000  -0.5000000  -0.5000000), wk =   2.0000000

     Dense  grid:   326029 G-vectors     FFT dimensions: (  90,  90,  90)

     Dynamical RAM for                 wfc:       1.24 MB

     Dynamical RAM for     wfc (w. buffer):       1.24 MB

     Dynamical RAM for           str. fact:       4.97 MB

     Dynamical RAM for           local pot:       0.00 MB

     Dynamical RAM for          nlocal pot:       1.24 MB

     Dynamical RAM for                qrad:       0.01 MB

     Dynamical RAM for          rho,v,vnew:      31.61 MB

     Dynamical RAM for               rhoin:      10.54 MB

     Dynamical RAM for            rho*nmix:      79.60 MB

     Dynamical RAM for           G-vectors:      21.14 MB

     Dynamical RAM for          h,s,v(r/c):       0.00 MB

     Dynamical RAM for          <psi|beta>:       0.00 MB

     Dynamical RAM for                 psi:       2.49 MB

     Dynamical RAM for                hpsi:       2.49 MB

     Dynamical RAM for                spsi:       2.49 MB

     Dynamical RAM for      wfcinit/wfcrot:       2.49 MB

     Dynamical RAM for           addusdens:      29.85 MB

     Dynamical RAM for          addusforce:      42.29 MB

     Estimated static dynamical RAM per process >     108.52 MB

     Estimated max dynamical RAM per process >     230.40 MB

     Initial potential from superposition of free atoms

     starting charge       2.0000, renormalised to       2.0000

     negative rho (up, down):  5.337E-02 0.000E+00
     Starting wfcs are    2 randomized atomic wfcs

     total cpu time spent up to now is        0.7 secs

     Self-consistent Calculation

     iteration #  1     ecut=    20.00 Ry     beta= 0.70
     Davidson diagonalization with overlap

---- Real-time Memory Report at c_bands before calling an iterative solver
           195 MiB given to the printing process from OS
             0 MiB allocation reported by mallinfo(arena+hblkhd)
           168 MiB available memory on the node where the printing process lives
------------------
     ethr =  1.00E-02,  avg # of iterations =  3.0

     negative rho (up, down):  6.570E-02 0.000E+00

     total cpu time spent up to now is        1.4 secs

     total energy              =      -2.26644248 Ry
     estimated scf accuracy    <       0.05759756 Ry

     iteration #  2     ecut=    20.00 Ry     beta= 0.70
     Davidson diagonalization with overlap

---- Real-time Memory Report at c_bands before calling an iterative solver
           241 MiB given to the printing process from OS
             0 MiB allocation reported by mallinfo(arena+hblkhd)
            98 MiB available memory on the node where the printing process lives
------------------
     ethr =  2.88E-03,  avg # of iterations =  1.0

     negative rho (up, down):  6.803E-02 0.000E+00

     total cpu time spent up to now is        2.0 secs

     total energy              =      -2.26825608 Ry
     estimated scf accuracy    <       0.00093860 Ry

     iteration #  3     ecut=    20.00 Ry     beta= 0.70
     Davidson diagonalization with overlap

---- Real-time Memory Report at c_bands before calling an iterative solver
           251 MiB given to the printing process from OS
             0 MiB allocation reported by mallinfo(arena+hblkhd)
           118 MiB available memory on the node where the printing process lives
------------------
     ethr =  4.69E-05,  avg # of iterations = 11.0

     negative rho (up, down):  6.737E-02 0.000E+00

     total cpu time spent up to now is        2.9 secs

     total energy              =      -2.26894026 Ry
     estimated scf accuracy    <       0.00001835 Ry

     iteration #  4     ecut=    20.00 Ry     beta= 0.70
     Davidson diagonalization with overlap

---- Real-time Memory Report at c_bands before calling an iterative solver
           261 MiB given to the printing process from OS
             0 MiB allocation reported by mallinfo(arena+hblkhd)
           108 MiB available memory on the node where the printing process lives
------------------
     ethr =  9.17E-07,  avg # of iterations =  6.0

     negative rho (up, down):  6.741E-02 0.000E+00

     total cpu time spent up to now is        3.6 secs

     total energy              =      -2.26891684 Ry
     estimated scf accuracy    <       0.00000104 Ry

     iteration #  5     ecut=    20.00 Ry     beta= 0.70
     Davidson diagonalization with overlap

---- Real-time Memory Report at c_bands before calling an iterative solver
           271 MiB given to the printing process from OS
             0 MiB allocation reported by mallinfo(arena+hblkhd)
            98 MiB available memory on the node where the printing process lives
------------------
     ethr =  5.20E-08,  avg # of iterations =  2.0

     negative rho (up, down):  6.739E-02 0.000E+00

     total cpu time spent up to now is        4.2 secs

     End of self-consistent calculation

          k =-0.5000-0.5000-0.5000 ( 40800 PWs)   bands (ev):

    -9.4355  -1.3094

     occupation numbers 
     1.0000   0.0000

     highest occupied, lowest unoccupied level (ev):    -9.4355   -1.3094

!    total energy              =      -2.26892832 Ry
     estimated scf accuracy    <          1.7E-09 Ry

     The total energy is the sum of the following terms:
     one-electron contribution =      -3.65161033 Ry
     hartree contribution      =       1.95501999 Ry
     xc contribution           =      -1.25294333 Ry
     ewald contribution        =       0.68060535 Ry

     convergence has been achieved in   5 iterations

     Forces acting on atoms (cartesian axes, Ry/au):

     atom    1 type  1   force =     0.18239564    0.00000000    0.00000000
     atom    2 type  1   force =    -0.18239564    0.00000000    0.00000000
     The non-local contrib.  to forces
     atom    1 type  1   force =     0.07340447    0.00000000    0.00000000
     atom    2 type  1   force =    -0.07613404    0.00000000    0.00000000
     The ionic contribution  to forces
     atom    1 type  1   force =    -0.55946378    0.00000000   -0.00000000
     atom    2 type  1   force =     0.55946378   -0.00000000   -0.00000000
     The local contribution  to forces
     atom    1 type  1   force =     0.66704825    0.00000000    0.00000000
     atom    2 type  1   force =    -0.66697354    0.00000000    0.00000000
     The core correction contribution to forces
     atom    1 type  1   force =     0.00000000    0.00000000    0.00000000
     atom    2 type  1   force =     0.00000000    0.00000000    0.00000000
     The Hubbard contrib.    to forces
     atom    1 type  1   force =     0.00000000    0.00000000    0.00000000
     atom    2 type  1   force =     0.00000000    0.00000000    0.00000000
     The SCF correction term to forces
     atom    1 type  1   force =    -0.00004342    0.00000000   -0.00000000
     atom    2 type  1   force =    -0.00020196    0.00000000   -0.00000000

     Total force =     0.257946     Total SCF correction =     0.000207

     BFGS Geometry Optimization
     Energy error            =      0.0E+00 Ry
     Gradient error          =      1.8E-01 Ry/Bohr

     number of scf cycles    =   1
     number of bfgs steps    =   0

     energy             new  =      -2.2689283152 Ry

     new trust radius        =       0.1823956389 bohr
     new conv_thr            =       0.0000000100 Ry


ATOMIC_POSITIONS (angstrom)
H             0.0965196155        0.0000000000        0.0000000000
H             0.9034803845        0.0000000000        0.0000000000



     Writing config-only to output data dir ./.save/
     NEW-OLD atomic charge density approx. for the potential

     negative rho (up, down):  6.834E-02 0.000E+00

     total cpu time spent up to now is        4.8 secs

     Self-consistent Calculation

     iteration #  1     ecut=    20.00 Ry     beta= 0.70
     Davidson diagonalization with overlap

---- Real-time Memory Report at c_bands before calling an iterative solver
           277 MiB given to the printing process from OS
             0 MiB allocation reported by mallinfo(arena+hblkhd)
           232 MiB available memory on the node where the printing process lives
------------------
     ethr =  1.00E-06,  avg # of iterations = 13.0

     negative rho (up, down):  8.380E-02 0.000E+00

     total cpu time spent up to now is        5.9 secs

     total energy              =      -2.31381542 Ry
     estimated scf accuracy    <       0.00656342 Ry

     iteration #  2     ecut=    20.00 Ry     beta= 0.70
     Davidson diagonalization with overlap

---- Real-time Memory Report at c_bands before calling an iterative solver
           277 MiB given to the printing process from OS
             0 MiB allocation reported by mallinfo(arena+hblkhd)
           134 MiB available memory on the node where the printing process lives
------------------
     ethr =  3.28E-04,  avg # of iterations =  1.0

     negative rho (up, down):  8.764E-02 0.000E+00

     total cpu time spent up to now is        6.5 secs

     total energy              =      -2.31173726 Ry
     estimated scf accuracy    <       0.00007543 Ry

     iteration #  3     ecut=    20.00 Ry     beta= 0.70
     Davidson diagonalization with overlap

---- Real-time Memory Report at c_bands before calling an iterative solver
           277 MiB given to the printing process from OS
             0 MiB allocation reported by mallinfo(arena+hblkhd)
           124 MiB available memory on the node where the printing process lives
------------------
     ethr =  3.77E-06,  avg # of iterations =  5.0

     negative rho (up, down):  8.848E-02 0.000E+00

     total cpu time spent up to now is        7.2 secs

     total energy              =      -2.31118046 Ry
     estimated scf accuracy    <       0.00000266 Ry

     iteration #  4     ecut=    20.00 Ry     beta= 0.70
     Davidson diagonalization with overlap

---- Real-time Memory Report at c_bands before calling an iterative solver
           277 MiB given to the printing process from OS
             0 MiB allocation reported by mallinfo(arena+hblkhd)
           115 MiB available memory on the node where the printing process lives
------------------
     ethr =  1.33E-07,  avg # of iterations =  3.0

     negative rho (up, down):  8.846E-02 0.000E+00

     total cpu time spent up to now is        7.9 secs

     total energy              =      -2.31119327 Ry
     estimated scf accuracy    <       0.00000003 Ry

     iteration #  5     ecut=    20.00 Ry     beta= 0.70
     Davidson diagonalization with overlap

---- Real-time Memory Report at c_bands before calling an iterative solver
           278 MiB given to the printing process from OS
             0 MiB allocation reported by mallinfo(arena+hblkhd)
           105 MiB available memory on the node where the printing process lives
------------------
     ethr =  1.32E-09,  avg # of iterations =  3.0

     negative rho (up, down):  8.843E-02 0.000E+00

     total cpu time spent up to now is        8.6 secs

     total energy              =      -2.31122068 Ry
     estimated scf accuracy    <       0.00000001 Ry

     iteration #  6     ecut=    20.00 Ry     beta= 0.70
     Davidson diagonalization with overlap

---- Real-time Memory Report at c_bands before calling an iterative solver
           288 MiB given to the printing process from OS
             0 MiB allocation reported by mallinfo(arena+hblkhd)
           110 MiB available memory on the node where the printing process lives
------------------
     ethr =  7.38E-10,  avg # of iterations =  4.0

     negative rho (up, down):  8.844E-02 0.000E+00

     total cpu time spent up to now is        9.2 secs

     total energy              =      -2.31121170 Ry
     estimated scf accuracy    <       0.00000002 Ry

     iteration #  7     ecut=    20.00 Ry     beta= 0.70
     Davidson diagonalization with overlap

---- Real-time Memory Report at c_bands before calling an iterative solver
           298 MiB given to the printing process from OS
             0 MiB allocation reported by mallinfo(arena+hblkhd)
            99 MiB available memory on the node where the printing process lives
------------------
     ethr =  7.38E-10,  avg # of iterations =  3.0

     negative rho (up, down):  8.845E-02 0.000E+00

     total cpu time spent up to now is        9.8 secs

     End of self-consistent calculation

          k =-0.5000-0.5000-0.5000 ( 40800 PWs)   bands (ev):

   -10.2349  -1.4080

     occupation numbers 
     1.0000   0.0000

     highest occupied, lowest unoccupied level (ev):   -10.2349   -1.4080

!    total energy              =      -2.31119898 Ry
     estimated scf accuracy    <          3.1E-09 Ry

     The total energy is the sum of the following terms:
     one-electron contribution =      -4.06807607 Ry
     hartree contribution      =       2.17738423 Ry
     xc contribution           =      -1.35409438 Ry
     ewald contribution        =       0.93358724 Ry

     convergence has been achieved in   7 iterations

     Forces acting on atoms (cartesian axes, Ry/au):

     atom    1 type  1   force =     0.07811253    0.00000000    0.00000000
     atom    2 type  1   force =    -0.07811253    0.00000000    0.00000000
     The non-local contrib.  to forces
     atom    1 type  1   force =     0.09685597    0.00000000    0.00000000
     atom    2 type  1   force =    -0.09513613    0.00000000    0.00000000
     The ionic contribution  to forces
     atom    1 type  1   force =    -0.85958057    0.00000000   -0.00000000
     atom    2 type  1   force =     0.85958057   -0.00000000   -0.00000000
     The local contribution  to forces
     atom    1 type  1   force =     0.84160542    0.00000000    0.00000000
     atom    2 type  1   force =    -0.84172787    0.00000000    0.00000000
     The core correction contribution to forces
     atom    1 type  1   force =     0.00000000    0.00000000    0.00000000
     atom    2 type  1   force =     0.00000000    0.00000000    0.00000000
     The Hubbard contrib.    to forces
     atom    1 type  1   force =     0.00000000    0.00000000    0.00000000
     atom    2 type  1   force =     0.00000000    0.00000000    0.00000000
     The SCF correction term to forces
     atom    1 type  1   force =    -0.00019753   -0.00000000    0.00000000
     atom    2 type  1   force =    -0.00025833    0.00000000    0.00000000

     Total force =     0.110468     Total SCF correction =     0.000325
     Energy error            =      4.2E-02 Ry
     Gradient error          =      7.8E-02 Ry/Bohr

     number of scf cycles    =   2
     number of bfgs steps    =   1

     energy             old  =      -2.2689283152 Ry
     energy             new  =      -2.3111989801 Ry

     CASE: energy            _new < energy            _old

     new trust radius        =       0.1366221684 bohr
     new conv_thr            =       0.0000000078 Ry


ATOMIC_POSITIONS (angstrom)
H             0.1688169535        0.0000000000        0.0000000000
H             0.8311830465        0.0000000000        0.0000000000



     Writing config-only to output data dir ./.save/
     NEW-OLD atomic charge density approx. for the potential

     negative rho (up, down):  7.921E-02 0.000E+00

     total cpu time spent up to now is       10.5 secs

     Self-consistent Calculation

     iteration #  1     ecut=    20.00 Ry     beta= 0.70
     Davidson diagonalization with overlap

---- Real-time Memory Report at c_bands before calling an iterative solver
           298 MiB given to the printing process from OS
             0 MiB allocation reported by mallinfo(arena+hblkhd)
           245 MiB available memory on the node where the printing process lives
------------------
     ethr =  1.00E-06,  avg # of iterations =  7.0

     negative rho (up, down):  9.246E-02 0.000E+00

     total cpu time spent up to now is       11.3 secs

     total energy              =      -2.30022944 Ry
     estimated scf accuracy    <       0.00602327 Ry

     iteration #  2     ecut=    20.00 Ry     beta= 0.70
     Davidson diagonalization with overlap

---- Real-time Memory Report at c_bands before calling an iterative solver
           298 MiB given to the printing process from OS
             0 MiB allocation reported by mallinfo(arena+hblkhd)
           148 MiB available memory on the node where the printing process lives
------------------
     ethr =  3.01E-04,  avg # of iterations =  1.0

     negative rho (up, down):  9.594E-02 0.000E+00

     total cpu time spent up to now is       11.9 secs

     total energy              =      -2.29853875 Ry
     estimated scf accuracy    <       0.00006508 Ry

     iteration #  3     ecut=    20.00 Ry     beta= 0.70
     Davidson diagonalization with overlap

---- Real-time Memory Report at c_bands before calling an iterative solver
           298 MiB given to the printing process from OS
             0 MiB allocation reported by mallinfo(arena+hblkhd)
           138 MiB available memory on the node where the printing process lives
------------------
     ethr =  3.25E-06,  avg # of iterations =  5.0

     negative rho (up, down):  9.674E-02 0.000E+00

     total cpu time spent up to now is       12.6 secs

     total energy              =      -2.29797702 Ry
     estimated scf accuracy    <       0.00000228 Ry

     iteration #  4     ecut=    20.00 Ry     beta= 0.70
     Davidson diagonalization with overlap

---- Real-time Memory Report at c_bands before calling an iterative solver
           298 MiB given to the printing process from OS
             0 MiB allocation reported by mallinfo(arena+hblkhd)
           128 MiB available memory on the node where the printing process lives
------------------
     ethr =  1.14E-07,  avg # of iterations =  2.0

     negative rho (up, down):  9.673E-02 0.000E+00

     total cpu time spent up to now is       13.2 secs

     total energy              =      -2.29800163 Ry
     estimated scf accuracy    <       0.00000003 Ry

     iteration #  5     ecut=    20.00 Ry     beta= 0.70
     Davidson diagonalization with overlap

---- Real-time Memory Report at c_bands before calling an iterative solver
           298 MiB given to the printing process from OS
             0 MiB allocation reported by mallinfo(arena+hblkhd)
           118 MiB available memory on the node where the printing process lives
------------------
     ethr =  1.62E-09,  avg # of iterations =  3.0

     negative rho (up, down):  9.674E-02 0.000E+00

     total cpu time spent up to now is       13.8 secs

     End of self-consistent calculation

          k =-0.5000-0.5000-0.5000 ( 40800 PWs)   bands (ev):

   -10.9701  -1.3017

     occupation numbers 
     1.0000   0.0000

     highest occupied, lowest unoccupied level (ev):   -10.9701   -1.3017

!    total energy              =      -2.29798433 Ry
     estimated scf accuracy    <          6.2E-09 Ry

     The total energy is the sum of the following terms:
     one-electron contribution =      -4.44548132 Ry
     hartree contribution      =       2.37421245 Ry
     xc contribution           =      -1.44649188 Ry
     ewald contribution        =       1.21977641 Ry

     convergence has been achieved in   5 iterations

     Forces acting on atoms (cartesian axes, Ry/au):

     atom    1 type  1   force =    -0.15533849    0.00000000    0.00000000
     atom    2 type  1   force =     0.15533849    0.00000000    0.00000000
     The non-local contrib.  to forces
     atom    1 type  1   force =     0.13059544    0.00000000    0.00000000
     atom    2 type  1   force =    -0.12924585    0.00000000    0.00000000
     The ionic contribution  to forces
     atom    1 type  1   force =    -1.27615446    0.00000000   -0.00000000
     atom    2 type  1   force =     1.27615446   -0.00000000   -0.00000000
     The local contribution  to forces
     atom    1 type  1   force =     0.99091546    0.00000000    0.00000000
     atom    2 type  1   force =    -0.99075024    0.00000000    0.00000000
     The core correction contribution to forces
     atom    1 type  1   force =     0.00000000    0.00000000    0.00000000
     atom    2 type  1   force =     0.00000000    0.00000000    0.00000000
     The Hubbard contrib.    to forces
     atom    1 type  1   force =     0.00000000    0.00000000    0.00000000
     atom    2 type  1   force =     0.00000000    0.00000000    0.00000000
     The SCF correction term to forces
     atom    1 type  1   force =    -0.00003695    0.00000000   -0.00000000
     atom    2 type  1   force =    -0.00016191    0.00000000   -0.00000000

     Total force =     0.219682     Total SCF correction =     0.000166
     Energy error            =      1.3E-02 Ry
     Gradient error          =      1.6E-01 Ry/Bohr

     number of scf cycles    =   3
     number of bfgs steps    =   2

     energy             old  =      -2.3111989801 Ry
     energy             new  =      -2.2979843316 Ry

     CASE: energy            _new > energy            _old

     new trust radius        =       0.0421899229 bohr
     new conv_thr            =       0.0000000078 Ry


ATOMIC_POSITIONS (angstrom)
H             0.1188455612        0.0000000000        0.0000000000
H             0.8811544388        0.0000000000        0.0000000000



     Writing config-only to output data dir ./.save/
     NEW-OLD atomic charge density approx. for the potential

     negative rho (up, down):  9.674E-02 0.000E+00

     total cpu time spent up to now is       14.5 secs

     Self-consistent Calculation

     iteration #  1     ecut=    20.00 Ry     beta= 0.70
     Davidson diagonalization with overlap

---- Real-time Memory Report at c_bands before calling an iterative solver
           298 MiB given to the printing process from OS
             0 MiB allocation reported by mallinfo(arena+hblkhd)
           245 MiB available memory on the node where the printing process lives
------------------
     ethr =  1.00E-06,  avg # of iterations =  7.0

     negative rho (up, down):  9.107E-02 0.000E+00

     total cpu time spent up to now is       15.3 secs

     total energy              =      -2.31286577 Ry
     estimated scf accuracy    <       0.00322726 Ry

     iteration #  2     ecut=    20.00 Ry     beta= 0.70
     Davidson diagonalization with overlap

---- Real-time Memory Report at c_bands before calling an iterative solver
           298 MiB given to the printing process from OS
             0 MiB allocation reported by mallinfo(arena+hblkhd)
           148 MiB available memory on the node where the printing process lives
------------------
     ethr =  1.61E-04,  avg # of iterations =  2.0

     negative rho (up, down):  9.096E-02 0.000E+00

     total cpu time spent up to now is       15.9 secs

     total energy              =      -2.31352089 Ry
     estimated scf accuracy    <       0.00003027 Ry

     iteration #  3     ecut=    20.00 Ry     beta= 0.70
     Davidson diagonalization with overlap

---- Real-time Memory Report at c_bands before calling an iterative solver
           298 MiB given to the printing process from OS
             0 MiB allocation reported by mallinfo(arena+hblkhd)
           138 MiB available memory on the node where the printing process lives
------------------
     ethr =  1.51E-06,  avg # of iterations =  4.0

     negative rho (up, down):  9.104E-02 0.000E+00

     total cpu time spent up to now is       16.6 secs

     total energy              =      -2.31349945 Ry
     estimated scf accuracy    <       0.00000206 Ry

     iteration #  4     ecut=    20.00 Ry     beta= 0.70
     Davidson diagonalization with overlap

---- Real-time Memory Report at c_bands before calling an iterative solver
           298 MiB given to the printing process from OS
             0 MiB allocation reported by mallinfo(arena+hblkhd)
           128 MiB available memory on the node where the printing process lives
------------------
     ethr =  1.03E-07,  avg # of iterations =  2.0

     negative rho (up, down):  9.106E-02 0.000E+00

     total cpu time spent up to now is       17.3 secs

     total energy              =      -2.31350080 Ry
     estimated scf accuracy    <       0.00000003 Ry

     iteration #  5     ecut=    20.00 Ry     beta= 0.70
     Davidson diagonalization with overlap

---- Real-time Memory Report at c_bands before calling an iterative solver
           298 MiB given to the printing process from OS
             0 MiB allocation reported by mallinfo(arena+hblkhd)
           118 MiB available memory on the node where the printing process lives
------------------
     ethr =  1.65E-09,  avg # of iterations =  3.0

     negative rho (up, down):  9.106E-02 0.000E+00

     total cpu time spent up to now is       17.9 secs

     End of self-consistent calculation

          k =-0.5000-0.5000-0.5000 ( 40800 PWs)   bands (ev):

   -10.4458  -1.3901

     occupation numbers 
     1.0000   0.0000

     highest occupied, lowest unoccupied level (ev):   -10.4458   -1.3901

!    total energy              =      -2.31349523 Ry
     estimated scf accuracy    <          1.4E-09 Ry

     The total energy is the sum of the following terms:
     one-electron contribution =      -4.17792666 Ry
     hartree contribution      =       2.23476178 Ry
     xc contribution           =      -1.38070084 Ry
     ewald contribution        =       1.01037049 Ry

     convergence has been achieved in   5 iterations

     Forces acting on atoms (cartesian axes, Ry/au):

     atom    1 type  1   force =     0.01752489    0.00000000    0.00000000
     atom    2 type  1   force =    -0.01752489    0.00000000    0.00000000
     The non-local contrib.  to forces
     atom    1 type  1   force =     0.09364980    0.00000000    0.00000000
     atom    2 type  1   force =    -0.09393643    0.00000000    0.00000000
     The ionic contribution  to forces
     atom    1 type  1   force =    -0.96331309    0.00000000   -0.00000000
     atom    2 type  1   force =     0.96331309   -0.00000000   -0.00000000
     The local contribution  to forces
     atom    1 type  1   force =     0.88697588    0.00000000    0.00000000
     atom    2 type  1   force =    -0.88708261    0.00000000    0.00000000
     The core correction contribution to forces
     atom    1 type  1   force =     0.00000000    0.00000000    0.00000000
     atom    2 type  1   force =     0.00000000    0.00000000    0.00000000
     The Hubbard contrib.    to forces
     atom    1 type  1   force =     0.00000000    0.00000000    0.00000000
     atom    2 type  1   force =     0.00000000    0.00000000    0.00000000
     The SCF correction term to forces
     atom    1 type  1   force =     0.00001182   -0.00000000   -0.00000000
     atom    2 type  1   force =    -0.00001941   -0.00000000   -0.00000000

     Total force =     0.024784     Total SCF correction =     0.000023
     Energy error            =      2.3E-03 Ry
     Gradient error          =      1.8E-02 Ry/Bohr

     number of scf cycles    =   4
     number of bfgs steps    =   2

     energy             old  =      -2.3111989801 Ry
     energy             new  =      -2.3134952252 Ry

     CASE: energy            _new < energy            _old

     new trust radius        =       0.0122033771 bohr
     new conv_thr            =       0.0000000018 Ry


ATOMIC_POSITIONS (angstrom)
H             0.1253033103        0.0000000000        0.0000000000
H             0.8746966897        0.0000000000        0.0000000000



     Writing config-only to output data dir ./.save/
     NEW-OLD atomic charge density approx. for the potential

     negative rho (up, down):  9.054E-02 0.000E+00

     total cpu time spent up to now is       18.5 secs

     Self-consistent Calculation

     iteration #  1     ecut=    20.00 Ry     beta= 0.70
     Davidson diagonalization with overlap

---- Real-time Memory Report at c_bands before calling an iterative solver
           298 MiB given to the printing process from OS
             0 MiB allocation reported by mallinfo(arena+hblkhd)
           245 MiB available memory on the node where the printing process lives
------------------
     ethr =  1.00E-06,  avg # of iterations =  3.0

     negative rho (up, down):  9.147E-02 0.000E+00

     total cpu time spent up to now is       19.2 secs

     total energy              =      -2.31341962 Ry
     estimated scf accuracy    <       0.00004527 Ry

     iteration #  2     ecut=    20.00 Ry     beta= 0.70
     Davidson diagonalization with overlap

---- Real-time Memory Report at c_bands before calling an iterative solver
           298 MiB given to the printing process from OS
             0 MiB allocation reported by mallinfo(arena+hblkhd)
           148 MiB available memory on the node where the printing process lives
------------------
     ethr =  2.26E-06,  avg # of iterations =  2.0

     negative rho (up, down):  9.164E-02 0.000E+00

     total cpu time spent up to now is       19.8 secs

     total energy              =      -2.31329638 Ry
     estimated scf accuracy    <       0.00000057 Ry

     iteration #  3     ecut=    20.00 Ry     beta= 0.70
     Davidson diagonalization with overlap

---- Real-time Memory Report at c_bands before calling an iterative solver
           298 MiB given to the printing process from OS
             0 MiB allocation reported by mallinfo(arena+hblkhd)
           138 MiB available memory on the node where the printing process lives
------------------
     ethr =  2.86E-08,  avg # of iterations =  2.0

     negative rho (up, down):  9.166E-02 0.000E+00

     total cpu time spent up to now is       20.5 secs

     total energy              =      -2.31330131 Ry
     estimated scf accuracy    <       0.00000003 Ry

     iteration #  4     ecut=    20.00 Ry     beta= 0.70
     Davidson diagonalization with overlap

---- Real-time Memory Report at c_bands before calling an iterative solver
           298 MiB given to the printing process from OS
             0 MiB allocation reported by mallinfo(arena+hblkhd)
           128 MiB available memory on the node where the printing process lives
------------------
     ethr =  1.70E-09,  avg # of iterations =  3.0

     negative rho (up, down):  9.167E-02 0.000E+00

     total cpu time spent up to now is       21.1 secs

     total energy              =      -2.31327984 Ry
     estimated scf accuracy    <       0.00000002 Ry

     iteration #  5     ecut=    20.00 Ry     beta= 0.70
     Davidson diagonalization with overlap

---- Real-time Memory Report at c_bands before calling an iterative solver
           298 MiB given to the printing process from OS
             0 MiB allocation reported by mallinfo(arena+hblkhd)
           118 MiB available memory on the node where the printing process lives
------------------
     ethr =  9.58E-10,  avg # of iterations =  3.0

     negative rho (up, down):  9.167E-02 0.000E+00

     total cpu time spent up to now is       21.7 secs

     total energy              =      -2.31328827 Ry
     estimated scf accuracy    <          4.0E-09 Ry

     iteration #  6     ecut=    20.00 Ry     beta= 0.70
     Davidson diagonalization with overlap

---- Real-time Memory Report at c_bands before calling an iterative solver
           298 MiB given to the printing process from OS
             0 MiB allocation reported by mallinfo(arena+hblkhd)
           108 MiB available memory on the node where the printing process lives
------------------
     ethr =  2.02E-10,  avg # of iterations =  4.0

     negative rho (up, down):  9.167E-02 0.000E+00

     total cpu time spent up to now is       22.4 secs

     total energy              =      -2.31328662 Ry
     estimated scf accuracy    <          3.1E-09 Ry

     iteration #  7     ecut=    20.00 Ry     beta= 0.70
     Davidson diagonalization with overlap

---- Real-time Memory Report at c_bands before calling an iterative solver
           298 MiB given to the printing process from OS
             0 MiB allocation reported by mallinfo(arena+hblkhd)
            98 MiB available memory on the node where the printing process lives
------------------
     ethr =  1.54E-10,  avg # of iterations =  4.0

     negative rho (up, down):  9.167E-02 0.000E+00

     total cpu time spent up to now is       23.1 secs

     End of self-consistent calculation

          k =-0.5000-0.5000-0.5000 ( 40800 PWs)   bands (ev):

   -10.5094  -1.3875

     occupation numbers 
     1.0000   0.0000

     highest occupied, lowest unoccupied level (ev):   -10.5094   -1.3875

!    total energy              =      -2.31329312 Ry
     estimated scf accuracy    <          1.5E-10 Ry

     The total energy is the sum of the following terms:
     one-electron contribution =      -4.21079063 Ry
     hartree contribution      =       2.25190578 Ry
     xc contribution           =      -1.38869561 Ry
     ewald contribution        =       1.03428733 Ry

     convergence has been achieved in   7 iterations

     Forces acting on atoms (cartesian axes, Ry/au):

     atom    1 type  1   force =    -0.00207127    0.00000000    0.00000000
     atom    2 type  1   force =     0.00207127    0.00000000    0.00000000
     The non-local contrib.  to forces
     atom    1 type  1   force =     0.09449013    0.00000000    0.00000000
     atom    2 type  1   force =    -0.09425647    0.00000000    0.00000000
     The ionic contribution  to forces
     atom    1 type  1   force =    -0.99682724    0.00000000   -0.00000000
     atom    2 type  1   force =     0.99682724   -0.00000000   -0.00000000
     The local contribution  to forces
     atom    1 type  1   force =     0.90036687    0.00000000    0.00000000
     atom    2 type  1   force =    -0.90034679    0.00000000    0.00000000
     The core correction contribution to forces
     atom    1 type  1   force =     0.00000000    0.00000000    0.00000000
     atom    2 type  1   force =     0.00000000    0.00000000    0.00000000
     The Hubbard contrib.    to forces
     atom    1 type  1   force =     0.00000000    0.00000000    0.00000000
     atom    2 type  1   force =     0.00000000    0.00000000    0.00000000
     The SCF correction term to forces
     atom    1 type  1   force =     0.00020756    0.00000000    0.00000000
     atom    2 type  1   force =     0.00015588    0.00000000    0.00000000

     Total force =     0.002929     Total SCF correction =     0.000260
     Energy error            =      2.0E-04 Ry
     Gradient error          =      2.1E-03 Ry/Bohr

     number of scf cycles    =   5
     number of bfgs steps    =   3

     energy             old  =      -2.3134952252 Ry
     energy             new  =      -2.3132931210 Ry

     CASE: energy            _new > energy            _old

     new trust radius        =       0.0041437364 bohr
     new conv_thr            =       0.0000000018 Ry


ATOMIC_POSITIONS (angstrom)
H             0.1210383321        0.0000000000        0.0000000000
H             0.8789616679        0.0000000000        0.0000000000



     Writing config-only to output data dir ./.save/
     NEW-OLD atomic charge density approx. for the potential

     negative rho (up, down):  9.198E-02 0.000E+00

     total cpu time spent up to now is       23.7 secs

     Self-consistent Calculation

     iteration #  1     ecut=    20.00 Ry     beta= 0.70
     Davidson diagonalization with overlap

---- Real-time Memory Report at c_bands before calling an iterative solver
           298 MiB given to the printing process from OS
             0 MiB allocation reported by mallinfo(arena+hblkhd)
           245 MiB available memory on the node where the printing process lives
------------------
     ethr =  1.00E-06,  avg # of iterations =  3.0

     negative rho (up, down):  9.141E-02 0.000E+00

     total cpu time spent up to now is       24.4 secs

     total energy              =      -2.31337429 Ry
     estimated scf accuracy    <       0.00001889 Ry

     iteration #  2     ecut=    20.00 Ry     beta= 0.70
     Davidson diagonalization with overlap

---- Real-time Memory Report at c_bands before calling an iterative solver
           298 MiB given to the printing process from OS
             0 MiB allocation reported by mallinfo(arena+hblkhd)
           148 MiB available memory on the node where the printing process lives
------------------
     ethr =  9.44E-07,  avg # of iterations =  2.0

     negative rho (up, down):  9.133E-02 0.000E+00

     total cpu time spent up to now is       25.0 secs

     total energy              =      -2.31343612 Ry
     estimated scf accuracy    <       0.00000022 Ry

     iteration #  3     ecut=    20.00 Ry     beta= 0.70
     Davidson diagonalization with overlap

---- Real-time Memory Report at c_bands before calling an iterative solver
           298 MiB given to the printing process from OS
             0 MiB allocation reported by mallinfo(arena+hblkhd)
           138 MiB available memory on the node where the printing process lives
------------------
     ethr =  1.08E-08,  avg # of iterations =  2.0

     negative rho (up, down):  9.130E-02 0.000E+00

     total cpu time spent up to now is       25.6 secs

     total energy              =      -2.31346524 Ry
     estimated scf accuracy    <          1.0E-08 Ry

     iteration #  4     ecut=    20.00 Ry     beta= 0.70
     Davidson diagonalization with overlap

---- Real-time Memory Report at c_bands before calling an iterative solver
           298 MiB given to the printing process from OS
             0 MiB allocation reported by mallinfo(arena+hblkhd)
           128 MiB available memory on the node where the printing process lives
------------------
     ethr =  5.00E-10,  avg # of iterations =  3.0

     negative rho (up, down):  9.131E-02 0.000E+00

     total cpu time spent up to now is       26.2 secs

     total energy              =      -2.31346063 Ry
     estimated scf accuracy    <          2.8E-09 Ry

     iteration #  5     ecut=    20.00 Ry     beta= 0.70
     Davidson diagonalization with overlap

---- Real-time Memory Report at c_bands before calling an iterative solver
           298 MiB given to the printing process from OS
             0 MiB allocation reported by mallinfo(arena+hblkhd)
           118 MiB available memory on the node where the printing process lives
------------------
     ethr =  1.41E-10,  avg # of iterations =  3.0

     negative rho (up, down):  9.130E-02 0.000E+00

     total cpu time spent up to now is       26.8 secs

     End of self-consistent calculation

          k =-0.5000-0.5000-0.5000 ( 40800 PWs)   bands (ev):

   -10.4652  -1.3850

     occupation numbers 
     1.0000   0.0000

     highest occupied, lowest unoccupied level (ev):   -10.4652   -1.3850

!    total energy              =      -2.31346291 Ry
     estimated scf accuracy    <          4.4E-10 Ry

     The total energy is the sum of the following terms:
     one-electron contribution =      -4.18919044 Ry
     hartree contribution      =       2.24085384 Ry
     xc contribution           =      -1.38352646 Ry
     ewald contribution        =       1.01840015 Ry

     convergence has been achieved in   5 iterations

     Forces acting on atoms (cartesian axes, Ry/au):

     atom    1 type  1   force =     0.01108775    0.00000000    0.00000000
     atom    2 type  1   force =    -0.01108775    0.00000000    0.00000000
     The non-local contrib.  to forces
     atom    1 type  1   force =     0.09420786    0.00000000    0.00000000
     atom    2 type  1   force =    -0.09371788    0.00000000    0.00000000
     The ionic contribution  to forces
     atom    1 type  1   force =    -0.97450115   -0.00000000   -0.00000000
     atom    2 type  1   force =     0.97450115    0.00000000   -0.00000000
     The local contribution  to forces
     atom    1 type  1   force =     0.89159573    0.00000000    0.00000000
     atom    2 type  1   force =    -0.89166255    0.00000000    0.00000000
     The core correction contribution to forces
     atom    1 type  1   force =     0.00000000    0.00000000    0.00000000
     atom    2 type  1   force =     0.00000000    0.00000000    0.00000000
     The Hubbard contrib.    to forces
     atom    1 type  1   force =     0.00000000    0.00000000    0.00000000
     atom    2 type  1   force =     0.00000000    0.00000000    0.00000000
     The SCF correction term to forces
     atom    1 type  1   force =     0.00000358   -0.00000000   -0.00000000
     atom    2 type  1   force =     0.00000980    0.00000000   -0.00000000

     Total force =     0.015680     Total SCF correction =     0.000010
     Energy error            =      3.2E-05 Ry
     Gradient error          =      1.1E-02 Ry/Bohr

     number of scf cycles    =   6
     number of bfgs steps    =   3

     energy             old  =      -2.3134952252 Ry
     energy             new  =      -2.3134629091 Ry

     CASE: energy            _new > energy            _old

     new trust radius        =       0.0016947717 bohr
     new conv_thr            =       0.0000000018 Ry


ATOMIC_POSITIONS (angstrom)
H             0.1197423958        0.0000000000        0.0000000000
H             0.8802576042        0.0000000000        0.0000000000



     Writing config-only to output data dir ./.save/
     NEW-OLD atomic charge density approx. for the potential

     negative rho (up, down):  9.140E-02 0.000E+00

     total cpu time spent up to now is       27.5 secs

     Self-consistent Calculation

     iteration #  1     ecut=    20.00 Ry     beta= 0.70
     Davidson diagonalization with overlap

---- Real-time Memory Report at c_bands before calling an iterative solver
           298 MiB given to the printing process from OS
             0 MiB allocation reported by mallinfo(arena+hblkhd)
           245 MiB available memory on the node where the printing process lives
------------------
     ethr =  1.00E-06,  avg # of iterations =  2.0

     Threshold (ethr) on eigenvalues was too large:
     Diagonalizing with lowered threshold

     Davidson diagonalization with overlap

---- Real-time Memory Report at c_bands before calling an iterative solver
           298 MiB given to the printing process from OS
             0 MiB allocation reported by mallinfo(arena+hblkhd)
           229 MiB available memory on the node where the printing process lives
------------------
     ethr =  8.78E-08,  avg # of iterations =  1.0

     negative rho (up, down):  9.121E-02 0.000E+00

     total cpu time spent up to now is       28.3 secs

     total energy              =      -2.31346301 Ry
     estimated scf accuracy    <       0.00000187 Ry

     iteration #  2     ecut=    20.00 Ry     beta= 0.70
     Davidson diagonalization with overlap

---- Real-time Memory Report at c_bands before calling an iterative solver
           298 MiB given to the printing process from OS
             0 MiB allocation reported by mallinfo(arena+hblkhd)
           148 MiB available memory on the node where the printing process lives
------------------
     ethr =  9.33E-08,  avg # of iterations =  2.0

     negative rho (up, down):  9.118E-02 0.000E+00

     total cpu time spent up to now is       28.9 secs

     total energy              =      -2.31348303 Ry
     estimated scf accuracy    <       0.00000002 Ry

     iteration #  3     ecut=    20.00 Ry     beta= 0.70
     Davidson diagonalization with overlap

---- Real-time Memory Report at c_bands before calling an iterative solver
           298 MiB given to the printing process from OS
             0 MiB allocation reported by mallinfo(arena+hblkhd)
           138 MiB available memory on the node where the printing process lives
------------------
     ethr =  9.60E-10,  avg # of iterations =  2.0

     negative rho (up, down):  9.117E-02 0.000E+00

     total cpu time spent up to now is       29.5 secs

     End of self-consistent calculation

          k =-0.5000-0.5000-0.5000 ( 40800 PWs)   bands (ev):

   -10.4532  -1.3851

     occupation numbers 
     1.0000   0.0000

     highest occupied, lowest unoccupied level (ev):   -10.4532   -1.3851

!    total energy              =      -2.31348836 Ry
     estimated scf accuracy    <          9.0E-10 Ry

     The total energy is the sum of the following terms:
     one-electron contribution =      -4.18259010 Ry
     hartree contribution      =       2.23737081 Ry
     xc contribution           =      -1.38191245 Ry
     ewald contribution        =       1.01364339 Ry

     convergence has been achieved in   3 iterations

     Forces acting on atoms (cartesian axes, Ry/au):

     atom    1 type  1   force =     0.01485344    0.00000000    0.00000000
     atom    2 type  1   force =    -0.01485344    0.00000000    0.00000000
     The non-local contrib.  to forces
     atom    1 type  1   force =     0.09396273    0.00000000    0.00000000
     atom    2 type  1   force =    -0.09367709    0.00000000    0.00000000
     The ionic contribution  to forces
     atom    1 type  1   force =    -0.96786558    0.00000000   -0.00000000
     atom    2 type  1   force =     0.96786558    0.00000000   -0.00000000
     The local contribution  to forces
     atom    1 type  1   force =     0.88891753    0.00000000    0.00000000
     atom    2 type  1   force =    -0.88897737    0.00000000    0.00000000
     The core correction contribution to forces
     atom    1 type  1   force =     0.00000000    0.00000000    0.00000000
     atom    2 type  1   force =     0.00000000    0.00000000    0.00000000
     The Hubbard contrib.    to forces
     atom    1 type  1   force =     0.00000000    0.00000000    0.00000000
     atom    2 type  1   force =     0.00000000    0.00000000    0.00000000
     The SCF correction term to forces
     atom    1 type  1   force =    -0.00006817    0.00000000   -0.00000000
     atom    2 type  1   force =     0.00002853    0.00000000   -0.00000000

     Total force =     0.021006     Total SCF correction =     0.000074
     Energy error            =      6.9E-06 Ry
     Gradient error          =      1.5E-02 Ry/Bohr

     number of scf cycles    =   7
     number of bfgs steps    =   3

     energy             old  =      -2.3134952252 Ry
     energy             new  =      -2.3134883567 Ry

     CASE: energy            _new > energy            _old

     new trust radius        =       0.0007595593 bohr
     new conv_thr            =       0.0000000018 Ry


ATOMIC_POSITIONS (angstrom)
H             0.1192475027        0.0000000000        0.0000000000
H             0.8807524973        0.0000000000        0.0000000000



     Writing config-only to output data dir ./.save/
     NEW-OLD atomic charge density approx. for the potential

     negative rho (up, down):  9.121E-02 0.000E+00

     total cpu time spent up to now is       30.1 secs

     Self-consistent Calculation

     iteration #  1     ecut=    20.00 Ry     beta= 0.70
     Davidson diagonalization with overlap

---- Real-time Memory Report at c_bands before calling an iterative solver
           298 MiB given to the printing process from OS
             0 MiB allocation reported by mallinfo(arena+hblkhd)
           245 MiB available memory on the node where the printing process lives
------------------
     ethr =  1.00E-06,  avg # of iterations =  2.0

     Threshold (ethr) on eigenvalues was too large:
     Diagonalizing with lowered threshold

     Davidson diagonalization with overlap

---- Real-time Memory Report at c_bands before calling an iterative solver
           298 MiB given to the printing process from OS
             0 MiB allocation reported by mallinfo(arena+hblkhd)
           229 MiB available memory on the node where the printing process lives
------------------
     ethr =  1.06E-08,  avg # of iterations =  1.0

     negative rho (up, down):  9.114E-02 0.000E+00

     total cpu time spent up to now is       30.9 secs

     total energy              =      -2.31347455 Ry
     estimated scf accuracy    <       0.00000024 Ry

     iteration #  2     ecut=    20.00 Ry     beta= 0.70
     Davidson diagonalization with overlap

---- Real-time Memory Report at c_bands before calling an iterative solver
           298 MiB given to the printing process from OS
             0 MiB allocation reported by mallinfo(arena+hblkhd)
           148 MiB available memory on the node where the printing process lives
------------------
     ethr =  1.20E-08,  avg # of iterations =  2.0

     negative rho (up, down):  9.112E-02 0.000E+00

     total cpu time spent up to now is       31.5 secs

     total energy              =      -2.31348732 Ry
     estimated scf accuracy    <          7.0E-09 Ry

     iteration #  3     ecut=    20.00 Ry     beta= 0.70
     Davidson diagonalization with overlap

---- Real-time Memory Report at c_bands before calling an iterative solver
           298 MiB given to the printing process from OS
             0 MiB allocation reported by mallinfo(arena+hblkhd)
           138 MiB available memory on the node where the printing process lives
------------------
     ethr =  3.51E-10,  avg # of iterations =  3.0

     negative rho (up, down):  9.112E-02 0.000E+00

     total cpu time spent up to now is       32.1 secs

     End of self-consistent calculation

          k =-0.5000-0.5000-0.5000 ( 40800 PWs)   bands (ev):

   -10.4489  -1.3874

     occupation numbers 
     1.0000   0.0000

     highest occupied, lowest unoccupied level (ev):   -10.4489   -1.3874

!    total energy              =      -2.31348637 Ry
     estimated scf accuracy    <          7.7E-10 Ry

     The total energy is the sum of the following terms:
     one-electron contribution =      -4.18008069 Ry
     hartree contribution      =       2.23605503 Ry
     xc contribution           =      -1.38129612 Ry
     ewald contribution        =       1.01183542 Ry

     convergence has been achieved in   3 iterations

     Forces acting on atoms (cartesian axes, Ry/au):

     atom    1 type  1   force =     0.01636636    0.00000000    0.00000000
     atom    2 type  1   force =    -0.01636636    0.00000000    0.00000000
     The non-local contrib.  to forces
     atom    1 type  1   force =     0.09391557    0.00000000    0.00000000
     atom    2 type  1   force =    -0.09364112    0.00000000    0.00000000
     The ionic contribution  to forces
     atom    1 type  1   force =    -0.96534944   -0.00000000   -0.00000000
     atom    2 type  1   force =     0.96534944    0.00000000   -0.00000000
     The local contribution  to forces
     atom    1 type  1   force =     0.88790261    0.00000000    0.00000000
     atom    2 type  1   force =    -0.88796480    0.00000000    0.00000000
     The core correction contribution to forces
     atom    1 type  1   force =     0.00000000    0.00000000    0.00000000
     atom    2 type  1   force =     0.00000000    0.00000000    0.00000000
     The Hubbard contrib.    to forces
     atom    1 type  1   force =     0.00000000    0.00000000    0.00000000
     atom    2 type  1   force =     0.00000000    0.00000000    0.00000000
     The SCF correction term to forces
     atom    1 type  1   force =     0.00003251    0.00000000   -0.00000000
     atom    2 type  1   force =     0.00002500    0.00000000    0.00000000

     Total force =     0.023146     Total SCF correction =     0.000041
     Energy error            =      8.9E-06 Ry
     Gradient error          =      1.6E-02 Ry/Bohr

     number of scf cycles    =   8
     number of bfgs steps    =   3

     energy             old  =      -2.3134952252 Ry
     energy             new  =      -2.3134863651 Ry

     CASE: energy            _new > energy            _old

     new trust radius        =       0.0002849475 bohr
     new conv_thr            =       0.0000000018 Ry


ATOMIC_POSITIONS (angstrom)
H             0.1189963490        0.0000000000        0.0000000000
H             0.8810036510        0.0000000000        0.0000000000



     Writing config-only to output data dir ./.save/
     NEW-OLD atomic charge density approx. for the potential

     negative rho (up, down):  9.114E-02 0.000E+00

     total cpu time spent up to now is       32.7 secs

     Self-consistent Calculation

     iteration #  1     ecut=    20.00 Ry     beta= 0.70
     Davidson diagonalization with overlap

---- Real-time Memory Report at c_bands before calling an iterative solver
           298 MiB given to the printing process from OS
             0 MiB allocation reported by mallinfo(arena+hblkhd)
           245 MiB available memory on the node where the printing process lives
------------------
     ethr =  1.00E-06,  avg # of iterations =  2.0

     Threshold (ethr) on eigenvalues was too large:
     Diagonalizing with lowered threshold

     Davidson diagonalization with overlap

---- Real-time Memory Report at c_bands before calling an iterative solver
           298 MiB given to the printing process from OS
             0 MiB allocation reported by mallinfo(arena+hblkhd)
           229 MiB available memory on the node where the printing process lives
------------------
     ethr =  3.12E-09,  avg # of iterations =  1.0

     negative rho (up, down):  9.110E-02 0.000E+00

     total cpu time spent up to now is       33.5 secs

     total energy              =      -2.31347613 Ry
     estimated scf accuracy    <       0.00000007 Ry

     iteration #  2     ecut=    20.00 Ry     beta= 0.70
     Davidson diagonalization with overlap

---- Real-time Memory Report at c_bands before calling an iterative solver
           298 MiB given to the printing process from OS
             0 MiB allocation reported by mallinfo(arena+hblkhd)
           148 MiB available memory on the node where the printing process lives
------------------
     ethr =  3.65E-09,  avg # of iterations =  2.0

     negative rho (up, down):  9.109E-02 0.000E+00

     total cpu time spent up to now is       34.1 secs

     total energy              =      -2.31349251 Ry
     estimated scf accuracy    <          2.9E-09 Ry

     iteration #  3     ecut=    20.00 Ry     beta= 0.70
     Davidson diagonalization with overlap

---- Real-time Memory Report at c_bands before calling an iterative solver
           298 MiB given to the printing process from OS
             0 MiB allocation reported by mallinfo(arena+hblkhd)
           138 MiB available memory on the node where the printing process lives
------------------
     ethr =  1.44E-10,  avg # of iterations =  3.0

     negative rho (up, down):  9.109E-02 0.000E+00

     total cpu time spent up to now is       34.7 secs

     End of self-consistent calculation

          k =-0.5000-0.5000-0.5000 ( 40800 PWs)   bands (ev):

   -10.4468  -1.3898

     occupation numbers 
     1.0000   0.0000

     highest occupied, lowest unoccupied level (ev):   -10.4468   -1.3898

!    total energy              =      -2.31349000 Ry
     estimated scf accuracy    <          1.7E-09 Ry

     The total energy is the sum of the following terms:
     one-electron contribution =      -4.17877890 Ry
     hartree contribution      =       2.23533486 Ry
     xc contribution           =      -1.38096566 Ry
     ewald contribution        =       1.01091970 Ry

     convergence has been achieved in   3 iterations

     Forces acting on atoms (cartesian axes, Ry/au):

     atom    1 type  1   force =     0.01714299    0.00000000    0.00000000
     atom    2 type  1   force =    -0.01714299    0.00000000    0.00000000
     The non-local contrib.  to forces
     atom    1 type  1   force =     0.09401886    0.00000000    0.00000000
     atom    2 type  1   force =    -0.09355025    0.00000000    0.00000000
     The ionic contribution  to forces
     atom    1 type  1   force =    -0.96407627   -0.00000000   -0.00000000
     atom    2 type  1   force =     0.96407627    0.00000000   -0.00000000
     The local contribution  to forces
     atom    1 type  1   force =     0.88733898    0.00000000    0.00000000
     atom    2 type  1   force =    -0.88746129    0.00000000    0.00000000
     The core correction contribution to forces
     atom    1 type  1   force =     0.00000000    0.00000000    0.00000000
     atom    2 type  1   force =     0.00000000    0.00000000    0.00000000
     The Hubbard contrib.    to forces
     atom    1 type  1   force =     0.00000000    0.00000000    0.00000000
     atom    2 type  1   force =     0.00000000    0.00000000    0.00000000
     The SCF correction term to forces
     atom    1 type  1   force =     0.00018341   -0.00000000   -0.00000000
     atom    2 type  1   force =     0.00011427   -0.00000000    0.00000000

     Total force =     0.024244     Total SCF correction =     0.000216
     Energy error            =      5.2E-06 Ry
     Gradient error          =      1.7E-02 Ry/Bohr

     number of scf cycles    =   9
     number of bfgs steps    =   3

     energy             old  =      -2.3134952252 Ry
     energy             new  =      -2.3134900009 Ry

     CASE: energy            _new > energy            _old

     new trust radius        =       0.0000935425 bohr

     trust_radius < trust_radius_min

     resetting bfgs history

     new conv_thr            =       0.0000000018 Ry


ATOMIC_POSITIONS (angstrom)
H             0.1281193341        0.0000000000        0.0000000000
H             0.8718806659        0.0000000000        0.0000000000



     Writing config-only to output data dir ./.save/
     NEW-OLD atomic charge density approx. for the potential

     negative rho (up, down):  9.032E-02 0.000E+00

     total cpu time spent up to now is       35.4 secs

     Self-consistent Calculation

     iteration #  1     ecut=    20.00 Ry     beta= 0.70
     Davidson diagonalization with overlap

---- Real-time Memory Report at c_bands before calling an iterative solver
           298 MiB given to the printing process from OS
             0 MiB allocation reported by mallinfo(arena+hblkhd)
           245 MiB available memory on the node where the printing process lives
------------------
     ethr =  1.00E-06,  avg # of iterations =  3.0

     negative rho (up, down):  9.164E-02 0.000E+00

     total cpu time spent up to now is       36.0 secs

     total energy              =      -2.31326761 Ry
     estimated scf accuracy    <       0.00009121 Ry

     iteration #  2     ecut=    20.00 Ry     beta= 0.70
     Davidson diagonalization with overlap

---- Real-time Memory Report at c_bands before calling an iterative solver
           298 MiB given to the printing process from OS
             0 MiB allocation reported by mallinfo(arena+hblkhd)
           148 MiB available memory on the node where the printing process lives
------------------
     ethr =  4.56E-06,  avg # of iterations =  2.0

     negative rho (up, down):  9.188E-02 0.000E+00

     total cpu time spent up to now is       36.7 secs

     total energy              =      -2.31313833 Ry
     estimated scf accuracy    <       0.00000100 Ry

     iteration #  3     ecut=    20.00 Ry     beta= 0.70
     Davidson diagonalization with overlap

---- Real-time Memory Report at c_bands before calling an iterative solver
           298 MiB given to the printing process from OS
             0 MiB allocation reported by mallinfo(arena+hblkhd)
           138 MiB available memory on the node where the printing process lives
------------------
     ethr =  5.02E-08,  avg # of iterations =  2.0

     negative rho (up, down):  9.194E-02 0.000E+00

     total cpu time spent up to now is       37.3 secs

     total energy              =      -2.31309690 Ry
     estimated scf accuracy    <       0.00000004 Ry

     iteration #  4     ecut=    20.00 Ry     beta= 0.70
     Davidson diagonalization with overlap

---- Real-time Memory Report at c_bands before calling an iterative solver
           298 MiB given to the printing process from OS
             0 MiB allocation reported by mallinfo(arena+hblkhd)
           128 MiB available memory on the node where the printing process lives
------------------
     ethr =  2.08E-09,  avg # of iterations =  3.0

     negative rho (up, down):  9.193E-02 0.000E+00

     total cpu time spent up to now is       37.9 secs

     End of self-consistent calculation

          k =-0.5000-0.5000-0.5000 ( 40800 PWs)   bands (ev):

   -10.5369  -1.3802

     occupation numbers 
     1.0000   0.0000

     highest occupied, lowest unoccupied level (ev):   -10.5369   -1.3802

!    total energy              =      -2.31310239 Ry
     estimated scf accuracy    <          1.2E-09 Ry

     The total energy is the sum of the following terms:
     one-electron contribution =      -4.22532600 Ry
     hartree contribution      =       2.25955419 Ry
     xc contribution           =      -1.39230756 Ry
     ewald contribution        =       1.04497698 Ry

     convergence has been achieved in   4 iterations

     Forces acting on atoms (cartesian axes, Ry/au):

     atom    1 type  1   force =    -0.01077589    0.00000000    0.00000000
     atom    2 type  1   force =     0.01077589    0.00000000    0.00000000
     The non-local contrib.  to forces
     atom    1 type  1   force =     0.09485250    0.00000000    0.00000000
     atom    2 type  1   force =    -0.09503917    0.00000000    0.00000000
     The ionic contribution  to forces
     atom    1 type  1   force =    -1.01199121    0.00000000   -0.00000000
     atom    2 type  1   force =     1.01199121    0.00000000   -0.00000000
     The local contribution  to forces
     atom    1 type  1   force =     0.90623960    0.00000000    0.00000000
     atom    2 type  1   force =    -0.90618872    0.00000000    0.00000000
     The core correction contribution to forces
     atom    1 type  1   force =     0.00000000    0.00000000    0.00000000
     atom    2 type  1   force =     0.00000000    0.00000000    0.00000000
     The Hubbard contrib.    to forces
     atom    1 type  1   force =     0.00000000    0.00000000    0.00000000
     atom    2 type  1   force =     0.00000000    0.00000000    0.00000000
     The SCF correction term to forces
     atom    1 type  1   force =    -0.00000177   -0.00000000   -0.00000000
     atom    2 type  1   force =    -0.00011240   -0.00000000   -0.00000000

     Total force =     0.015239     Total SCF correction =     0.000112
     Energy error            =      3.9E-04 Ry
     Gradient error          =      1.1E-02 Ry/Bohr

     number of scf cycles    =  10
     number of bfgs steps    =   3

     energy             old  =      -2.3134952252 Ry
     energy             new  =      -2.3131023890 Ry

     CASE: energy            _new > energy            _old

     new trust radius        =       0.0053444383 bohr
     new conv_thr            =       0.0000000018 Ry


ATOMIC_POSITIONS (angstrom)
H             0.1216737162        0.0000000000        0.0000000000
H             0.8783262838        0.0000000000        0.0000000000



     Writing config-only to output data dir ./.save/
     NEW-OLD atomic charge density approx. for the potential

     negative rho (up, down):  9.239E-02 0.000E+00

     total cpu time spent up to now is       38.5 secs

     Self-consistent Calculation

     iteration #  1     ecut=    20.00 Ry     beta= 0.70
     Davidson diagonalization with overlap

---- Real-time Memory Report at c_bands before calling an iterative solver
           298 MiB given to the printing process from OS
             0 MiB allocation reported by mallinfo(arena+hblkhd)
           245 MiB available memory on the node where the printing process lives
------------------
     ethr =  1.00E-06,  avg # of iterations =  3.0

     negative rho (up, down):  9.153E-02 0.000E+00

     total cpu time spent up to now is       39.2 secs

     total energy              =      -2.31329902 Ry
     estimated scf accuracy    <       0.00004472 Ry

     iteration #  2     ecut=    20.00 Ry     beta= 0.70
     Davidson diagonalization with overlap

---- Real-time Memory Report at c_bands before calling an iterative solver
           298 MiB given to the printing process from OS
             0 MiB allocation reported by mallinfo(arena+hblkhd)
           148 MiB available memory on the node where the printing process lives
------------------
     ethr =  2.24E-06,  avg # of iterations =  2.0

     negative rho (up, down):  9.137E-02 0.000E+00

     total cpu time spent up to now is       39.8 secs

     total energy              =      -2.31343595 Ry
     estimated scf accuracy    <       0.00000062 Ry

     iteration #  3     ecut=    20.00 Ry     beta= 0.70
     Davidson diagonalization with overlap

---- Real-time Memory Report at c_bands before calling an iterative solver
           298 MiB given to the printing process from OS
             0 MiB allocation reported by mallinfo(arena+hblkhd)
           138 MiB available memory on the node where the printing process lives
------------------
     ethr =  3.08E-08,  avg # of iterations =  2.0

     negative rho (up, down):  9.136E-02 0.000E+00

     total cpu time spent up to now is       40.5 secs

     total energy              =      -2.31344722 Ry
     estimated scf accuracy    <       0.00000003 Ry

     iteration #  4     ecut=    20.00 Ry     beta= 0.70
     Davidson diagonalization with overlap

---- Real-time Memory Report at c_bands before calling an iterative solver
           298 MiB given to the printing process from OS
             0 MiB allocation reported by mallinfo(arena+hblkhd)
           128 MiB available memory on the node where the printing process lives
------------------
     ethr =  1.44E-09,  avg # of iterations =  3.0

     negative rho (up, down):  9.136E-02 0.000E+00

     total cpu time spent up to now is       41.1 secs

     total energy              =      -2.31344833 Ry
     estimated scf accuracy    <       0.00000001 Ry

     iteration #  5     ecut=    20.00 Ry     beta= 0.70
     Davidson diagonalization with overlap

---- Real-time Memory Report at c_bands before calling an iterative solver
           298 MiB given to the printing process from OS
             0 MiB allocation reported by mallinfo(arena+hblkhd)
           118 MiB available memory on the node where the printing process lives
------------------
     ethr =  7.46E-10,  avg # of iterations =  1.0

     negative rho (up, down):  9.136E-02 0.000E+00

     total cpu time spent up to now is       41.8 secs

     total energy              =      -2.31344894 Ry
     estimated scf accuracy    <       0.00000001 Ry

     iteration #  6     ecut=    20.00 Ry     beta= 0.70
     Davidson diagonalization with overlap

---- Real-time Memory Report at c_bands before calling an iterative solver
           298 MiB given to the printing process from OS
             0 MiB allocation reported by mallinfo(arena+hblkhd)
           108 MiB available memory on the node where the printing process lives
------------------
     ethr =  7.31E-10,  avg # of iterations =  2.0

     negative rho (up, down):  9.133E-02 0.000E+00

     total cpu time spent up to now is       42.4 secs

     total energy              =      -2.31346555 Ry
     estimated scf accuracy    <       0.00000002 Ry

     iteration #  7     ecut=    20.00 Ry     beta= 0.70
     Davidson diagonalization with overlap

---- Real-time Memory Report at c_bands before calling an iterative solver
           298 MiB given to the printing process from OS
             0 MiB allocation reported by mallinfo(arena+hblkhd)
            98 MiB available memory on the node where the printing process lives
------------------
     ethr =  7.31E-10,  avg # of iterations =  3.0

     negative rho (up, down):  9.134E-02 0.000E+00

     total cpu time spent up to now is       43.1 secs

     total energy              =      -2.31346176 Ry
     estimated scf accuracy    <       0.00000004 Ry

     iteration #  8     ecut=    20.00 Ry     beta= 0.70
     Davidson diagonalization with overlap

---- Real-time Memory Report at c_bands before calling an iterative solver
           307 MiB given to the printing process from OS
             0 MiB allocation reported by mallinfo(arena+hblkhd)
           117 MiB available memory on the node where the printing process lives
------------------
     ethr =  7.31E-10,  avg # of iterations =  3.0

     negative rho (up, down):  9.134E-02 0.000E+00

     total cpu time spent up to now is       43.8 secs

     total energy              =      -2.31345479 Ry
     estimated scf accuracy    <          4.8E-09 Ry

     iteration #  9     ecut=    20.00 Ry     beta= 0.70
     Davidson diagonalization with overlap

---- Real-time Memory Report at c_bands before calling an iterative solver
           318 MiB given to the printing process from OS
             0 MiB allocation reported by mallinfo(arena+hblkhd)
           107 MiB available memory on the node where the printing process lives
------------------
     ethr =  2.40E-10,  avg # of iterations =  3.0

     negative rho (up, down):  9.135E-02 0.000E+00

     total cpu time spent up to now is       44.5 secs

     total energy              =      -2.31345373 Ry
     estimated scf accuracy    <          9.3E-09 Ry

     iteration # 10     ecut=    20.00 Ry     beta= 0.70
     Davidson diagonalization with overlap

---- Real-time Memory Report at c_bands before calling an iterative solver
           327 MiB given to the printing process from OS
             0 MiB allocation reported by mallinfo(arena+hblkhd)
            97 MiB available memory on the node where the printing process lives
------------------
     ethr =  2.40E-10,  avg # of iterations =  2.0

     negative rho (up, down):  9.135E-02 0.000E+00

     total cpu time spent up to now is       45.1 secs

     total energy              =      -2.31345364 Ry
     estimated scf accuracy    <          3.4E-09 Ry

     iteration # 11     ecut=    20.00 Ry     beta= 0.70
     Davidson diagonalization with overlap

---- Real-time Memory Report at c_bands before calling an iterative solver
           327 MiB given to the printing process from OS
             0 MiB allocation reported by mallinfo(arena+hblkhd)
            97 MiB available memory on the node where the printing process lives
------------------
     ethr =  1.70E-10,  avg # of iterations =  1.0

     negative rho (up, down):  9.135E-02 0.000E+00

     total cpu time spent up to now is       45.8 secs

     total energy              =      -2.31345372 Ry
     estimated scf accuracy    <          2.8E-09 Ry

     iteration # 12     ecut=    20.00 Ry     beta= 0.70
     Davidson diagonalization with overlap

---- Real-time Memory Report at c_bands before calling an iterative solver
           327 MiB given to the printing process from OS
             0 MiB allocation reported by mallinfo(arena+hblkhd)
[...]
------------------
     ethr =  1.02E-11,  avg # of iterations =  1.0

     negative rho (up, down):  9.124E-02 0.000E+00

     total cpu time spent up to now is      142.0 secs

     total energy              =      -2.31349485 Ry
     estimated scf accuracy    <          1.2E-09 Ry

     iteration # 77     ecut=    20.00 Ry     beta= 0.70
     Davidson diagonalization with overlap

---- Real-time Memory Report at c_bands before calling an iterative solver
           327 MiB given to the printing process from OS
             0 MiB allocation reported by mallinfo(arena+hblkhd)
            98 MiB available memory on the node where the printing process lives
------------------
     ethr =  1.02E-11,  avg # of iterations =  2.0

     negative rho (up, down):  9.124E-02 0.000E+00

     total cpu time spent up to now is      142.6 secs

     total energy              =      -2.31349293 Ry
     estimated scf accuracy    <          1.4E-09 Ry

     iteration # 78     ecut=    20.00 Ry     beta= 0.70
     Davidson diagonalization with overlap

---- Real-time Memory Report at c_bands before calling an iterative solver
           327 MiB given to the printing process from OS
             0 MiB allocation reported by mallinfo(arena+hblkhd)
            98 MiB available memory on the node where the printing process lives
------------------
     ethr =  1.02E-11,  avg # of iterations =  4.0

     negative rho (up, down):  9.124E-02 0.000E+00

     total cpu time spent up to now is      143.4 secs

     total energy              =      -2.31349453 Ry
     estimated scf accuracy    <          4.6E-10 Ry

     iteration # 79     ecut=    20.00 Ry     beta= 0.70
     Davidson diagonalization with overlap

---- Real-time Memory Report at c_bands before calling an iterative solver
           327 MiB given to the printing process from OS
             0 MiB allocation reported by mallinfo(arena+hblkhd)
            98 MiB available memory on the node where the printing process lives
------------------
     ethr =  1.02E-11,  avg # of iterations =  4.0

     negative rho (up, down):  9.125E-02 0.000E+00

     total cpu time spent up to now is      144.0 secs

     total energy              =      -2.31348781 Ry
     estimated scf accuracy    <          1.1E-09 Ry

     iteration # 80     ecut=    20.00 Ry     beta= 0.70
     Davidson diagonalization with overlap

---- Real-time Memory Report at c_bands before calling an iterative solver
           327 MiB given to the printing process from OS
             0 MiB allocation reported by mallinfo(arena+hblkhd)
            98 MiB available memory on the node where the printing process lives
------------------
     ethr =  1.02E-11,  avg # of iterations =  4.0

     negative rho (up, down):  9.124E-02 0.000E+00

     total cpu time spent up to now is      144.8 secs

     total energy              =      -2.31348842 Ry
     estimated scf accuracy    <          2.1E-10 Ry

     iteration # 81     ecut=    20.00 Ry     beta= 0.70
     Davidson diagonalization with overlap

---- Real-time Memory Report at c_bands before calling an iterative solver
           327 MiB given to the printing process from OS
             0 MiB allocation reported by mallinfo(arena+hblkhd)
            98 MiB available memory on the node where the printing process lives
------------------
     ethr =  1.02E-11,  avg # of iterations =  4.0

     negative rho (up, down):  9.124E-02 0.000E+00

     total cpu time spent up to now is      145.5 secs

     total energy              =      -2.31349420 Ry
     estimated scf accuracy    <          3.8E-10 Ry

     iteration # 82     ecut=    20.00 Ry     beta= 0.70
     Davidson diagonalization with overlap

---- Real-time Memory Report at c_bands before calling an iterative solver
           327 MiB given to the printing process from OS
             0 MiB allocation reported by mallinfo(arena+hblkhd)
            98 MiB available memory on the node where the printing process lives
------------------
     ethr =  1.02E-11,  avg # of iterations =  4.0

     negative rho (up, down):  9.124E-02 0.000E+00

     total cpu time spent up to now is      146.2 secs

     total energy              =      -2.31349318 Ry
     estimated scf accuracy    <          9.9E-10 Ry

     iteration # 83     ecut=    20.00 Ry     beta= 0.70
     Davidson diagonalization with overlap

---- Real-time Memory Report at c_bands before calling an iterative solver
           327 MiB given to the printing process from OS
             0 MiB allocation reported by mallinfo(arena+hblkhd)
            98 MiB available memory on the node where the printing process lives
------------------
     ethr =  1.02E-11,  avg # of iterations =  4.0

     negative rho (up, down):  9.124E-02 0.000E+00

     total cpu time spent up to now is      146.9 secs

     total energy              =      -2.31349323 Ry
     estimated scf accuracy    <          5.8E-10 Ry

     iteration # 84     ecut=    20.00 Ry     beta= 0.70
     Davidson diagonalization with overlap

---- Real-time Memory Report at c_bands before calling an iterative solver
           327 MiB given to the printing process from OS
             0 MiB allocation reported by mallinfo(arena+hblkhd)
            98 MiB available memory on the node where the printing process lives
------------------
     ethr =  1.02E-11,  avg # of iterations =  1.0

     negative rho (up, down):  9.124E-02 0.000E+00

     total cpu time spent up to now is      147.5 secs

     total energy              =      -2.31349322 Ry
     estimated scf accuracy    <          5.7E-10 Ry

     iteration # 85     ecut=    20.00 Ry     beta= 0.70
     Davidson diagonalization with overlap

---- Real-time Memory Report at c_bands before calling an iterative solver
           327 MiB given to the printing process from OS
             0 MiB allocation reported by mallinfo(arena+hblkhd)
            98 MiB available memory on the node where the printing process lives
------------------
     ethr =  1.02E-11,  avg # of iterations =  1.0

     negative rho (up, down):  9.124E-02 0.000E+00

     total cpu time spent up to now is      148.2 secs

     total energy              =      -2.31349323 Ry
     estimated scf accuracy    <          5.7E-10 Ry

     iteration # 86     ecut=    20.00 Ry     beta= 0.70
     Davidson diagonalization with overlap

---- Real-time Memory Report at c_bands before calling an iterative solver
           327 MiB given to the printing process from OS
             0 MiB allocation reported by mallinfo(arena+hblkhd)
            98 MiB available memory on the node where the printing process lives
------------------
     ethr =  1.02E-11,  avg # of iterations =  1.0

     negative rho (up, down):  9.124E-02 0.000E+00

     total cpu time spent up to now is      148.8 secs

     total energy              =      -2.31349324 Ry
     estimated scf accuracy    <          5.7E-10 Ry

     iteration # 87     ecut=    20.00 Ry     beta= 0.70
     Davidson diagonalization with overlap

---- Real-time Memory Report at c_bands before calling an iterative solver
           327 MiB given to the printing process from OS
             0 MiB allocation reported by mallinfo(arena+hblkhd)
            98 MiB available memory on the node where the printing process lives
------------------
     ethr =  1.02E-11,  avg # of iterations =  1.0

     negative rho (up, down):  9.124E-02 0.000E+00

     total cpu time spent up to now is      149.4 secs

     total energy              =      -2.31349485 Ry
     estimated scf accuracy    <          5.6E-10 Ry

     iteration # 88     ecut=    20.00 Ry     beta= 0.70
     Davidson diagonalization with overlap

---- Real-time Memory Report at c_bands before calling an iterative solver
           327 MiB given to the printing process from OS
             0 MiB allocation reported by mallinfo(arena+hblkhd)
            98 MiB available memory on the node where the printing process lives
------------------
     ethr =  1.02E-11,  avg # of iterations =  4.0

     negative rho (up, down):  9.124E-02 0.000E+00

     total cpu time spent up to now is      150.1 secs

     total energy              =      -2.31349479 Ry
     estimated scf accuracy    <          1.6E-09 Ry

     iteration # 89     ecut=    20.00 Ry     beta= 0.70
     Davidson diagonalization with overlap

---- Real-time Memory Report at c_bands before calling an iterative solver
           327 MiB given to the printing process from OS
             0 MiB allocation reported by mallinfo(arena+hblkhd)
            98 MiB available memory on the node where the printing process lives
------------------
     ethr =  1.02E-11,  avg # of iterations =  1.0

     negative rho (up, down):  9.124E-02 0.000E+00

     total cpu time spent up to now is      150.7 secs

     total energy              =      -2.31349475 Ry
     estimated scf accuracy    <          1.4E-09 Ry

     iteration # 90     ecut=    20.00 Ry     beta= 0.70
     Davidson diagonalization with overlap

---- Real-time Memory Report at c_bands before calling an iterative solver
           327 MiB given to the printing process from OS
             0 MiB allocation reported by mallinfo(arena+hblkhd)
            98 MiB available memory on the node where the printing process lives
------------------
     ethr =  1.02E-11,  avg # of iterations =  2.0

     negative rho (up, down):  9.125E-02 0.000E+00

     total cpu time spent up to now is      151.4 secs

     total energy              =      -2.31348511 Ry
     estimated scf accuracy    <          1.4E-09 Ry

     iteration # 91     ecut=    20.00 Ry     beta= 0.70
     Davidson diagonalization with overlap

---- Real-time Memory Report at c_bands before calling an iterative solver
           327 MiB given to the printing process from OS
             0 MiB allocation reported by mallinfo(arena+hblkhd)
            98 MiB available memory on the node where the printing process lives
------------------
     ethr =  1.02E-11,  avg # of iterations =  4.0

     negative rho (up, down):  9.125E-02 0.000E+00

     total cpu time spent up to now is      152.1 secs

     total energy              =      -2.31348744 Ry
     estimated scf accuracy    <          1.3E-09 Ry

     iteration # 92     ecut=    20.00 Ry     beta= 0.70
     Davidson diagonalization with overlap

---- Real-time Memory Report at c_bands before calling an iterative solver
           327 MiB given to the printing process from OS
             0 MiB allocation reported by mallinfo(arena+hblkhd)
            98 MiB available memory on the node where the printing process lives
------------------
     ethr =  1.02E-11,  avg # of iterations =  4.0

     negative rho (up, down):  9.124E-02 0.000E+00

     total cpu time spent up to now is      152.8 secs

     total energy              =      -2.31348837 Ry
     estimated scf accuracy    <          5.0E-10 Ry

     iteration # 93     ecut=    20.00 Ry     beta= 0.70
     Davidson diagonalization with overlap

---- Real-time Memory Report at c_bands before calling an iterative solver
           327 MiB given to the printing process from OS
             0 MiB allocation reported by mallinfo(arena+hblkhd)
            98 MiB available memory on the node where the printing process lives
------------------
     ethr =  1.02E-11,  avg # of iterations =  3.0

     negative rho (up, down):  9.124E-02 0.000E+00

     total cpu time spent up to now is      153.5 secs

     total energy              =      -2.31348512 Ry
     estimated scf accuracy    <          2.2E-10 Ry

     iteration # 94     ecut=    20.00 Ry     beta= 0.70
     Davidson diagonalization with overlap

---- Real-time Memory Report at c_bands before calling an iterative solver
           327 MiB given to the printing process from OS
             0 MiB allocation reported by mallinfo(arena+hblkhd)
            98 MiB available memory on the node where the printing process lives
------------------
     ethr =  1.02E-11,  avg # of iterations =  3.0

     negative rho (up, down):  9.124E-02 0.000E+00

     total cpu time spent up to now is      154.1 secs

     total energy              =      -2.31348819 Ry
     estimated scf accuracy    <          3.3E-10 Ry

     iteration # 95     ecut=    20.00 Ry     beta= 0.70
     Davidson diagonalization with overlap

---- Real-time Memory Report at c_bands before calling an iterative solver
           327 MiB given to the printing process from OS
             0 MiB allocation reported by mallinfo(arena+hblkhd)
            98 MiB available memory on the node where the printing process lives
------------------
     ethr =  1.02E-11,  avg # of iterations =  3.0

     negative rho (up, down):  9.124E-02 0.000E+00

     total cpu time spent up to now is      154.8 secs

     total energy              =      -2.31348821 Ry
     estimated scf accuracy    <          2.3E-10 Ry

     iteration # 96     ecut=    20.00 Ry     beta= 0.70
     Davidson diagonalization with overlap

---- Real-time Memory Report at c_bands before calling an iterative solver
           327 MiB given to the printing process from OS
             0 MiB allocation reported by mallinfo(arena+hblkhd)
            98 MiB available memory on the node where the printing process lives
------------------
     ethr =  1.02E-11,  avg # of iterations =  3.0

     negative rho (up, down):  9.124E-02 0.000E+00

     total cpu time spent up to now is      155.5 secs

     total energy              =      -2.31349257 Ry
     estimated scf accuracy    <          4.0E-10 Ry

     iteration # 97     ecut=    20.00 Ry     beta= 0.70
     Davidson diagonalization with overlap

---- Real-time Memory Report at c_bands before calling an iterative solver
           327 MiB given to the printing process from OS
             0 MiB allocation reported by mallinfo(arena+hblkhd)
            98 MiB available memory on the node where the printing process lives
------------------
     ethr =  1.02E-11,  avg # of iterations =  4.0

     negative rho (up, down):  9.124E-02 0.000E+00

     total cpu time spent up to now is      156.2 secs

     total energy              =      -2.31348815 Ry
     estimated scf accuracy    <          5.3E-10 Ry

     iteration # 98     ecut=    20.00 Ry     beta= 0.70
     Davidson diagonalization with overlap

---- Real-time Memory Report at c_bands before calling an iterative solver
           327 MiB given to the printing process from OS
             0 MiB allocation reported by mallinfo(arena+hblkhd)
            98 MiB available memory on the node where the printing process lives
------------------
     ethr =  1.02E-11,  avg # of iterations =  4.0

     negative rho (up, down):  9.124E-02 0.000E+00

     total cpu time spent up to now is      156.9 secs

     total energy              =      -2.31348852 Ry
     estimated scf accuracy    <          2.1E-10 Ry

     iteration # 99     ecut=    20.00 Ry     beta= 0.70
     Davidson diagonalization with overlap

---- Real-time Memory Report at c_bands before calling an iterative solver
           327 MiB given to the printing process from OS
             0 MiB allocation reported by mallinfo(arena+hblkhd)
            98 MiB available memory on the node where the printing process lives
------------------
     ethr =  1.02E-11,  avg # of iterations =  2.0

     negative rho (up, down):  9.124E-02 0.000E+00

     total cpu time spent up to now is      157.6 secs

     total energy              =      -2.31348837 Ry
     estimated scf accuracy    <          2.3E-10 Ry

     iteration #100     ecut=    20.00 Ry     beta= 0.70
     Davidson diagonalization with overlap

---- Real-time Memory Report at c_bands before calling an iterative solver
           327 MiB given to the printing process from OS
             0 MiB allocation reported by mallinfo(arena+hblkhd)
            98 MiB available memory on the node where the printing process lives
------------------
     ethr =  1.02E-11,  avg # of iterations =  3.0

     negative rho (up, down):  9.125E-02 0.000E+00

     total cpu time spent up to now is      158.2 secs

     total energy              =      -2.31348814 Ry
     estimated scf accuracy    <          1.9E-10 Ry

     End of self-consistent calculation

     convergence NOT achieved after 100 iterations: stopping

     Writing config to output data dir ./.save/
     Message from routine punch:
     wavefunctions written to file

     init_run     :      0.65s CPU      0.68s WALL (       1 calls)
     electrons    :    144.89s CPU    145.68s WALL (      20 calls)
     update_pot   :      7.91s CPU      8.04s WALL (      19 calls)
     forces       :      2.76s CPU      2.83s WALL (      19 calls)

     Called by init_run:
     wfcinit      :      0.06s CPU      0.06s WALL (       1 calls)
     wfcinit:atom :      0.00s CPU      0.00s WALL (       1 calls)
     wfcinit:wfcr :      0.05s CPU      0.05s WALL (       1 calls)
     potinit      :      0.40s CPU      0.42s WALL (       1 calls)
     hinit0       :      0.03s CPU      0.03s WALL (       1 calls)

     Called by electrons:
     c_bands      :     32.44s CPU     32.52s WALL (     218 calls)
     sum_band     :     17.64s CPU     17.71s WALL (     218 calls)
     v_of_rho     :     80.76s CPU     81.13s WALL (     231 calls)
     v_h          :      4.69s CPU      4.70s WALL (     231 calls)
     v_xc         :     76.07s CPU     76.43s WALL (     231 calls)
     newd         :      5.81s CPU      5.82s WALL (     231 calls)
     mix_rho      :     13.69s CPU     13.91s WALL (     218 calls)

     Called by c_bands:
     init_us_2    :      0.48s CPU      0.49s WALL (     437 calls)
     init_us_2:cp :      0.48s CPU      0.48s WALL (     437 calls)
     cegterg      :     32.11s CPU     32.18s WALL (     218 calls)

     Called by sum_band:
     sum_band:wei :      0.00s CPU      0.00s WALL (     218 calls)
     sum_band:loo :      5.41s CPU      5.43s WALL (     218 calls)
     sum_band:buf :      0.00s CPU      0.00s WALL (     218 calls)
     sum_band:ini :      0.25s CPU      0.25s WALL (     218 calls)
     sum_band:cal :      0.06s CPU      0.06s WALL (     218 calls)
     sum_band:bec :      0.00s CPU      0.00s WALL (     218 calls)
     addusdens    :      1.52s CPU      1.56s WALL (     218 calls)
     addusd:skk   :      0.43s CPU      0.45s WALL (     218 calls)
     addusd:dgemm :      0.33s CPU      0.34s WALL (     218 calls)
     addusd:qvan2 :      0.41s CPU      0.41s WALL (     218 calls)

     Called by *egterg:
     cdiaghg      :      0.02s CPU      0.02s WALL (     837 calls)
     cegterg:over :      0.39s CPU      0.39s WALL (     645 calls)
     cegterg:upda :      0.30s CPU      0.30s WALL (     645 calls)
     cegterg:last :      0.55s CPU      0.55s WALL (     508 calls)
     h_psi        :     30.27s CPU     30.34s WALL (     864 calls)
     s_psi        :      0.15s CPU      0.15s WALL (     864 calls)
     g_psi        :      0.12s CPU      0.13s WALL (     645 calls)

     Called by h_psi:
     h_psi:calbec :      0.22s CPU      0.22s WALL (     864 calls)
     vloc_psi     :     29.80s CPU     29.86s WALL (     864 calls)
     add_vuspsi   :      0.17s CPU      0.17s WALL (     864 calls)

     General routines
     calbec       :      0.29s CPU      0.29s WALL (    1158 calls)
     fft          :     41.12s CPU     41.21s WALL (    2605 calls)
     ffts         :      3.55s CPU      3.57s WALL (     218 calls)
     fftw         :     31.10s CPU     31.17s WALL (    3100 calls)
     davcio       :      0.01s CPU      0.03s WALL (      19 calls)


     PWSCF        :   2m37.33s CPU   2m38.35s WALL


   This run was terminated on:   1: 3: 5  28Feb2022            

=------------------------------------------------------------------------------=
   JOB DONE.
=------------------------------------------------------------------------------=
