
     Program PWSCF v.7.0 starts on 28Feb2022 at 22:14:52 

     This program is part of the open-source Quantum ESPRESSO suite
     for quantum simulation of materials; please cite
         "P. Giannozzi et al., J. Phys.:Condens. Matter 21 395502 (2009);
         "P. Giannozzi et al., J. Phys.:Condens. Matter 29 465901 (2017);
         "P. Giannozzi et al., J. Chem. Phys. 152 154105 (2020);
          URL http://www.quantum-espresso.org", 
     in publications or presentations arising from this work. More details at
     http://www.quantum-espresso.org/quote

     Serial version
     1309 MiB available memory on the printing compute node when the environment starts

     Waiting for input...
     Reading input from standard input

     Current dimensions of program PWSCF are:
     Max number of different atomic species (ntypx) = 10
     Max number of k-points (npk) =  40000
     Max angular momentum in pseudopotentials (lmaxx) =  4

    ============================================================
    |  pseudopotential report for atomic species:  1           |
    |        pseudo potential version   7   3   2              |
    ------------------------------------------------------------
    |  hydrogen            PBE                  exchange-corr  |
    |  z =   1.    zv( 1) =   1.    exfact =   5.00000         |
    |  ifpcor =  0           atomic energy =  -0.91772 Ry      |
    |  index    orbital      occupation    energy              |
    |    1        100           1.00       -0.48               |
    |  rinner =  0.5000                                        |
    |    new generation scheme:                                |
    |    nbeta =  1     kkbeta =  271     rcloc =    0.6000    |
    |    ibeta    l     epsilon   rcut                         |
    |      1       0      -0.48   0.80                         |
    ============================================================

     IMPORTANT: XC functional enforced from input :
     Exchange-correlation= BLYP
                           (   1   3   1   3   0   0   0)
     Any further DFT definition will be discarded
     Please, verify this is what you really want


     G-vector sticks info
     --------------------
     sticks:   dense  smooth     PW     G-vecs:    dense   smooth      PW
     Sum        1433    1433    421                40651    40651    6451

     Using Slab Decomposition



     bravais-lattice index     =            1
     lattice parameter (alat)  =      30.0000  a.u.
     unit-cell volume          =   27000.0000 (a.u.)^3
     number of atoms/cell      =            2
     number of atomic types    =            1
     number of electrons       =         2.00
     number of Kohn-Sham states=            2
     kinetic-energy cutoff     =       5.0000  Ry
     charge density cutoff     =      20.0000  Ry
     scf convergence threshold =      1.0E-08
     mixing beta               =       0.7000
     number of iterations used =            8  plain     mixing
     Exchange-correlation= BLYP
                           (   1   3   1   3   0   0   0)

     celldm(1)=  30.000000  celldm(2)=   0.000000  celldm(3)=   0.000000
     celldm(4)=   0.000000  celldm(5)=   0.000000  celldm(6)=   0.000000

     crystal axes: (cart. coord. in units of alat)
               a(1) = (   1.000000   0.000000   0.000000 )  
               a(2) = (   0.000000   1.000000   0.000000 )  
               a(3) = (   0.000000   0.000000   1.000000 )  

     reciprocal axes: (cart. coord. in units 2 pi/alat)
               b(1) = (  1.000000  0.000000  0.000000 )  
               b(2) = (  0.000000  1.000000  0.000000 )  
               b(3) = (  0.000000  0.000000  1.000000 )  


     PseudoPot. # 1 for hy read from file:
     /root/q-e/pseudo/H_US.van
     MD5 check sum: a9a9bfe98ff56cf4de197d71fc46bb44
     Pseudo is Ultrasoft, Zval =  1.0
     Generated by Vanderbilt code, v. 7.3.2
     Using radial grid of  399 points,  1 beta functions with: 
                l(1) =   0
     Q(r) pseudized with  8 coefficients,  rinner =    0.500

     atomic species   valence    mass     pseudopotential
        H              1.00     1.00784     hy( 1.00)

      8 Sym. Ops. (no inversion) found


                                    s                        frac. trans.

      isym =  1     identity                                     

 cryst.   s( 1) = (     1          0          0      )
                  (     0          1          0      )
                  (     0          0          1      )

 cart.    s( 1) = (  1.0000000  0.0000000  0.0000000 )
                  (  0.0000000  1.0000000  0.0000000 )
                  (  0.0000000  0.0000000  1.0000000 )


      isym =  2     180 deg rotation - cart. axis [1,0,0]        

 cryst.   s( 2) = (     1          0          0      )
                  (     0         -1          0      )
                  (     0          0         -1      )

 cart.    s( 2) = (  1.0000000  0.0000000  0.0000000 )
                  (  0.0000000 -1.0000000  0.0000000 )
                  (  0.0000000  0.0000000 -1.0000000 )


      isym =  3      90 deg rotation - cart. axis [-1,0,0]       

 cryst.   s( 3) = (     1          0          0      )
                  (     0          0         -1      )
                  (     0          1          0      )

 cart.    s( 3) = (  1.0000000  0.0000000  0.0000000 )
                  (  0.0000000  0.0000000  1.0000000 )
                  (  0.0000000 -1.0000000  0.0000000 )


      isym =  4      90 deg rotation - cart. axis [1,0,0]        

 cryst.   s( 4) = (     1          0          0      )
                  (     0          0          1      )
                  (     0         -1          0      )

 cart.    s( 4) = (  1.0000000  0.0000000  0.0000000 )
                  (  0.0000000  0.0000000 -1.0000000 )
                  (  0.0000000  1.0000000  0.0000000 )


      isym =  5     inv. 180 deg rotation - cart. axis [0,0,1]   

 cryst.   s( 5) = (     1          0          0      )
                  (     0          1          0      )
                  (     0          0         -1      )

 cart.    s( 5) = (  1.0000000  0.0000000  0.0000000 )
                  (  0.0000000  1.0000000  0.0000000 )
                  (  0.0000000  0.0000000 -1.0000000 )


      isym =  6     inv. 180 deg rotation - cart. axis [0,1,0]   

 cryst.   s( 6) = (     1          0          0      )
                  (     0         -1          0      )
                  (     0          0          1      )

 cart.    s( 6) = (  1.0000000  0.0000000  0.0000000 )
                  (  0.0000000 -1.0000000  0.0000000 )
                  (  0.0000000  0.0000000  1.0000000 )


      isym =  7     inv. 180 deg rotation - cart. axis [0,1,1]   

 cryst.   s( 7) = (     1          0          0      )
                  (     0          0         -1      )
                  (     0         -1          0      )

 cart.    s( 7) = (  1.0000000  0.0000000  0.0000000 )
                  (  0.0000000  0.0000000 -1.0000000 )
                  (  0.0000000 -1.0000000  0.0000000 )


      isym =  8     inv. 180 deg rotation - cart. axis [0,1,-1]  

 cryst.   s( 8) = (     1          0          0      )
                  (     0          0          1      )
                  (     0          1          0      )

 cart.    s( 8) = (  1.0000000  0.0000000  0.0000000 )
                  (  0.0000000  0.0000000  1.0000000 )
                  (  0.0000000  1.0000000  0.0000000 )


     point group C_4v (4mm) 
     there are  5 classes
     the character table:

       E     2C4   C2    2s_v  2s_d 
A_1    1.00  1.00  1.00  1.00  1.00
A_2    1.00  1.00  1.00 -1.00 -1.00
B_1    1.00 -1.00  1.00  1.00 -1.00
B_2    1.00 -1.00  1.00 -1.00  1.00
E      2.00  0.00 -2.00  0.00  0.00

     the symmetry operations in each class and the name of the first element:

     E        1
          identity                                               
     2C4      3    4
           90 deg rotation - cart. axis [-1,0,0]                 
     C2       2
          180 deg rotation - cart. axis [1,0,0]                  
     2s_v     5    6
          inv. 180 deg rotation - cart. axis [0,0,1]             
     2s_d     7    8
          inv. 180 deg rotation - cart. axis [0,1,1]             

   Cartesian axes

     site n.     atom                  positions (alat units)
         1           H   tau(   1) = (   0.0000000   0.0000000   0.0000000  )
         2           H   tau(   2) = (   0.2204680   0.0000000   0.0000000  )

   Crystallographic axes

     site n.     atom                  positions (cryst. coord.)
         1           H   tau(   1) = (  0.0000000  0.0000000  0.0000000  )
         2           H   tau(   2) = (  0.2204680  0.0000000  0.0000000  )

     number of k points=     1
                       cart. coord. in units 2pi/alat
        k(    1) = (  -0.5000000  -0.5000000  -0.5000000), wk =   2.0000000

                       cryst. coord.
        k(    1) = (  -0.5000000  -0.5000000  -0.5000000), wk =   2.0000000

     Dense  grid:    40651 G-vectors     FFT dimensions: (  45,  45,  45)

     Dynamical RAM for                 wfc:       0.16 MB

     Dynamical RAM for     wfc (w. buffer):       0.16 MB

     Dynamical RAM for           str. fact:       0.62 MB

     Dynamical RAM for           local pot:       0.00 MB

     Dynamical RAM for          nlocal pot:       0.16 MB

     Dynamical RAM for                qrad:       0.00 MB

     Dynamical RAM for          rho,v,vnew:       3.95 MB

     Dynamical RAM for               rhoin:       1.32 MB

     Dynamical RAM for            rho*nmix:       9.92 MB

     Dynamical RAM for           G-vectors:       2.64 MB

     Dynamical RAM for          h,s,v(r/c):       0.00 MB

     Dynamical RAM for          <psi|beta>:       0.00 MB

     Dynamical RAM for                 psi:       0.31 MB

     Dynamical RAM for                hpsi:       0.31 MB

     Dynamical RAM for                spsi:       0.31 MB

     Dynamical RAM for      wfcinit/wfcrot:       0.31 MB

     Dynamical RAM for           addusdens:       3.72 MB

     Estimated static dynamical RAM per process >      13.55 MB

     Estimated max dynamical RAM per process >      27.20 MB

     Initial potential from superposition of free atoms

     starting charge       2.0000, renormalised to       2.0000

     negative rho (up, down):  5.394E-01 0.000E+00
     Starting wfcs are    2 randomized atomic wfcs

     total cpu time spent up to now is        0.1 secs

     Self-consistent Calculation

     iteration #  1     ecut=     5.00 Ry     beta= 0.70
     Davidson diagonalization with overlap

---- Real-time Memory Report at c_bands before calling an iterative solver
            38 MiB given to the printing process from OS
             0 MiB allocation reported by mallinfo(arena+hblkhd)
          1290 MiB available memory on the node where the printing process lives
------------------
     ethr =  1.00E-02,  avg # of iterations =  1.0

     negative rho (up, down):  2.763E-01 0.000E+00

     total cpu time spent up to now is        0.2 secs

     total energy              =      -1.64900032 Ry
     estimated scf accuracy    <       0.02173428 Ry

     iteration #  2     ecut=     5.00 Ry     beta= 0.70
     Davidson diagonalization with overlap

---- Real-time Memory Report at c_bands before calling an iterative solver
            44 MiB given to the printing process from OS
             0 MiB allocation reported by mallinfo(arena+hblkhd)
          1277 MiB available memory on the node where the printing process lives
------------------
     ethr =  1.09E-03,  avg # of iterations =  1.0

     negative rho (up, down):  2.704E-01 0.000E+00

     total cpu time spent up to now is        0.2 secs

     total energy              =      -1.63048783 Ry
     estimated scf accuracy    <       0.60781631 Ry

     iteration #  3     ecut=     5.00 Ry     beta= 0.70
     Davidson diagonalization with overlap

---- Real-time Memory Report at c_bands before calling an iterative solver
            46 MiB given to the printing process from OS
             0 MiB allocation reported by mallinfo(arena+hblkhd)
          1276 MiB available memory on the node where the printing process lives
------------------
     ethr =  1.09E-03,  avg # of iterations =  1.0

     negative rho (up, down):  1.863E-01 0.000E+00

     total cpu time spent up to now is        0.3 secs

     total energy              =      -1.68377020 Ry
     estimated scf accuracy    <       0.11088691 Ry

     iteration #  4     ecut=     5.00 Ry     beta= 0.70
     Davidson diagonalization with overlap

---- Real-time Memory Report at c_bands before calling an iterative solver
            47 MiB given to the printing process from OS
             0 MiB allocation reported by mallinfo(arena+hblkhd)
          1274 MiB available memory on the node where the printing process lives
------------------
     ethr =  1.09E-03,  avg # of iterations =  1.0

     negative rho (up, down):  1.789E-01 0.000E+00

     total cpu time spent up to now is        0.4 secs

     total energy              =      -1.69073093 Ry
     estimated scf accuracy    <       0.03818719 Ry

     iteration #  5     ecut=     5.00 Ry     beta= 0.70
     Davidson diagonalization with overlap

---- Real-time Memory Report at c_bands before calling an iterative solver
            48 MiB given to the printing process from OS
             0 MiB allocation reported by mallinfo(arena+hblkhd)
          1273 MiB available memory on the node where the printing process lives
------------------
     ethr =  1.09E-03,  avg # of iterations =  1.0

     negative rho (up, down):  1.793E-01 0.000E+00

     total cpu time spent up to now is        0.4 secs

     total energy              =      -1.69133779 Ry
     estimated scf accuracy    <       0.00005961 Ry

     iteration #  6     ecut=     5.00 Ry     beta= 0.70
     Davidson diagonalization with overlap

---- Real-time Memory Report at c_bands before calling an iterative solver
            49 MiB given to the printing process from OS
             0 MiB allocation reported by mallinfo(arena+hblkhd)
          1272 MiB available memory on the node where the printing process lives
------------------
     ethr =  2.98E-06,  avg # of iterations =  1.0

     negative rho (up, down):  1.784E-01 0.000E+00

     total cpu time spent up to now is        0.5 secs

     total energy              =      -1.69182426 Ry
     estimated scf accuracy    <       0.00063455 Ry

     iteration #  7     ecut=     5.00 Ry     beta= 0.70
     Davidson diagonalization with overlap

---- Real-time Memory Report at c_bands before calling an iterative solver
            50 MiB given to the printing process from OS
             0 MiB allocation reported by mallinfo(arena+hblkhd)
          1271 MiB available memory on the node where the printing process lives
------------------
     ethr =  2.98E-06,  avg # of iterations =  1.0

     negative rho (up, down):  1.782E-01 0.000E+00

     total cpu time spent up to now is        0.6 secs

     total energy              =      -1.69188603 Ry
     estimated scf accuracy    <       0.00129871 Ry

     iteration #  8     ecut=     5.00 Ry     beta= 0.70
     Davidson diagonalization with overlap

---- Real-time Memory Report at c_bands before calling an iterative solver
            52 MiB given to the printing process from OS
             0 MiB allocation reported by mallinfo(arena+hblkhd)
          1269 MiB available memory on the node where the printing process lives
------------------
     ethr =  2.98E-06,  avg # of iterations =  1.0

     negative rho (up, down):  1.782E-01 0.000E+00

     total cpu time spent up to now is        0.6 secs

     total energy              =      -1.69192665 Ry
     estimated scf accuracy    <       0.00000017 Ry

     iteration #  9     ecut=     5.00 Ry     beta= 0.70
     Davidson diagonalization with overlap

---- Real-time Memory Report at c_bands before calling an iterative solver
            53 MiB given to the printing process from OS
             0 MiB allocation reported by mallinfo(arena+hblkhd)
          1268 MiB available memory on the node where the printing process lives
------------------
     ethr =  8.28E-09,  avg # of iterations =  4.0

     negative rho (up, down):  1.782E-01 0.000E+00

     total cpu time spent up to now is        0.7 secs

     total energy              =      -1.69191744 Ry
     estimated scf accuracy    <       0.00000820 Ry

     iteration # 10     ecut=     5.00 Ry     beta= 0.70
     Davidson diagonalization with overlap

---- Real-time Memory Report at c_bands before calling an iterative solver
            54 MiB given to the printing process from OS
             0 MiB allocation reported by mallinfo(arena+hblkhd)
          1267 MiB available memory on the node where the printing process lives
------------------
     ethr =  8.28E-09,  avg # of iterations =  2.0

     negative rho (up, down):  1.782E-01 0.000E+00

     total cpu time spent up to now is        0.8 secs

     total energy              =      -1.69191889 Ry
     estimated scf accuracy    <       0.00001097 Ry

     iteration # 11     ecut=     5.00 Ry     beta= 0.70
     Davidson diagonalization with overlap

---- Real-time Memory Report at c_bands before calling an iterative solver
            54 MiB given to the printing process from OS
             0 MiB allocation reported by mallinfo(arena+hblkhd)
          1267 MiB available memory on the node where the printing process lives
------------------
     ethr =  8.28E-09,  avg # of iterations =  3.0

     negative rho (up, down):  1.782E-01 0.000E+00

     total cpu time spent up to now is        0.9 secs

     total energy              =      -1.69193351 Ry
     estimated scf accuracy    <       0.00000105 Ry

     iteration # 12     ecut=     5.00 Ry     beta= 0.70
     Davidson diagonalization with overlap

---- Real-time Memory Report at c_bands before calling an iterative solver
            54 MiB given to the printing process from OS
             0 MiB allocation reported by mallinfo(arena+hblkhd)
          1267 MiB available memory on the node where the printing process lives
------------------
     ethr =  8.28E-09,  avg # of iterations =  2.0

     negative rho (up, down):  1.782E-01 0.000E+00

     total cpu time spent up to now is        0.9 secs

     total energy              =      -1.69192661 Ry
     estimated scf accuracy    <       0.00000119 Ry

     iteration # 13     ecut=     5.00 Ry     beta= 0.70
     Davidson diagonalization with overlap

---- Real-time Memory Report at c_bands before calling an iterative solver
            54 MiB given to the printing process from OS
             0 MiB allocation reported by mallinfo(arena+hblkhd)
          1267 MiB available memory on the node where the printing process lives
------------------
     ethr =  8.28E-09,  avg # of iterations =  3.0

     negative rho (up, down):  1.782E-01 0.000E+00

     total cpu time spent up to now is        1.0 secs

     total energy              =      -1.69192763 Ry
     estimated scf accuracy    <       0.00000029 Ry

     iteration # 14     ecut=     5.00 Ry     beta= 0.70
     Davidson diagonalization with overlap

---- Real-time Memory Report at c_bands before calling an iterative solver
            54 MiB given to the printing process from OS
             0 MiB allocation reported by mallinfo(arena+hblkhd)
          1267 MiB available memory on the node where the printing process lives
------------------
     ethr =  8.28E-09,  avg # of iterations =  1.0

     negative rho (up, down):  1.782E-01 0.000E+00

     total cpu time spent up to now is        1.1 secs

     total energy              =      -1.69192949 Ry
     estimated scf accuracy    <       0.00000027 Ry

     iteration # 15     ecut=     5.00 Ry     beta= 0.70
     Davidson diagonalization with overlap

---- Real-time Memory Report at c_bands before calling an iterative solver
            54 MiB given to the printing process from OS
             0 MiB allocation reported by mallinfo(arena+hblkhd)
          1267 MiB available memory on the node where the printing process lives
------------------
     ethr =  8.28E-09,  avg # of iterations =  1.0

     negative rho (up, down):  1.782E-01 0.000E+00

     total cpu time spent up to now is        1.1 secs

     total energy              =      -1.69193178 Ry
     estimated scf accuracy    <       0.00000006 Ry

     iteration # 16     ecut=     5.00 Ry     beta= 0.70
     Davidson diagonalization with overlap

---- Real-time Memory Report at c_bands before calling an iterative solver
            54 MiB given to the printing process from OS
             0 MiB allocation reported by mallinfo(arena+hblkhd)
          1267 MiB available memory on the node where the printing process lives
------------------
     ethr =  3.00E-09,  avg # of iterations =  2.0

     negative rho (up, down):  1.782E-01 0.000E+00

     total cpu time spent up to now is        1.2 secs

     total energy              =      -1.69192850 Ry
     estimated scf accuracy    <       0.00000007 Ry

     iteration # 17     ecut=     5.00 Ry     beta= 0.70
     Davidson diagonalization with overlap

---- Real-time Memory Report at c_bands before calling an iterative solver
            54 MiB given to the printing process from OS
             0 MiB allocation reported by mallinfo(arena+hblkhd)
          1267 MiB available memory on the node where the printing process lives
------------------
     ethr =  3.00E-09,  avg # of iterations =  2.0

     negative rho (up, down):  1.782E-01 0.000E+00

     total cpu time spent up to now is        1.3 secs

     total energy              =      -1.69194796 Ry
     estimated scf accuracy    <       0.00000003 Ry

     iteration # 18     ecut=     5.00 Ry     beta= 0.70
     Davidson diagonalization with overlap

---- Real-time Memory Report at c_bands before calling an iterative solver
            54 MiB given to the printing process from OS
             0 MiB allocation reported by mallinfo(arena+hblkhd)
          1267 MiB available memory on the node where the printing process lives
------------------
     ethr =  1.42E-09,  avg # of iterations =  4.0

     negative rho (up, down):  1.781E-01 0.000E+00

     total cpu time spent up to now is        1.4 secs

     total energy              =      -1.69195945 Ry
     estimated scf accuracy    <       0.00000017 Ry

     iteration # 19     ecut=     5.00 Ry     beta= 0.70
     Davidson diagonalization with overlap

---- Real-time Memory Report at c_bands before calling an iterative solver
            54 MiB given to the printing process from OS
             0 MiB allocation reported by mallinfo(arena+hblkhd)
          1267 MiB available memory on the node where the printing process lives
------------------
     ethr =  1.42E-09,  avg # of iterations =  4.0

     negative rho (up, down):  1.781E-01 0.000E+00

     total cpu time spent up to now is        1.4 secs

     total energy              =      -1.69195333 Ry
     estimated scf accuracy    <       0.00000144 Ry

     iteration # 20     ecut=     5.00 Ry     beta= 0.70
     Davidson diagonalization with overlap

---- Real-time Memory Report at c_bands before calling an iterative solver
            54 MiB given to the printing process from OS
             0 MiB allocation reported by mallinfo(arena+hblkhd)
          1267 MiB available memory on the node where the printing process lives
------------------
     ethr =  1.42E-09,  avg # of iterations =  3.0

     negative rho (up, down):  1.781E-01 0.000E+00

     total cpu time spent up to now is        1.5 secs

     total energy              =      -1.69196893 Ry
     estimated scf accuracy    <       0.00000175 Ry

     iteration # 21     ecut=     5.00 Ry     beta= 0.70
     Davidson diagonalization with overlap

---- Real-time Memory Report at c_bands before calling an iterative solver
            54 MiB given to the printing process from OS
             0 MiB allocation reported by mallinfo(arena+hblkhd)
          1267 MiB available memory on the node where the printing process lives
------------------
     ethr =  1.42E-09,  avg # of iterations =  4.0

     negative rho (up, down):  1.781E-01 0.000E+00

     total cpu time spent up to now is        1.6 secs

     total energy              =      -1.69198206 Ry
     estimated scf accuracy    <       0.00004150 Ry

     iteration # 22     ecut=     5.00 Ry     beta= 0.70
     Davidson diagonalization with overlap

---- Real-time Memory Report at c_bands before calling an iterative solver
            54 MiB given to the printing process from OS
             0 MiB allocation reported by mallinfo(arena+hblkhd)
          1267 MiB available memory on the node where the printing process lives
------------------
     ethr =  1.42E-09,  avg # of iterations =  4.0

     negative rho (up, down):  1.782E-01 0.000E+00

     total cpu time spent up to now is        1.7 secs

     total energy              =      -1.69194468 Ry
     estimated scf accuracy    <       0.00003453 Ry

     iteration # 23     ecut=     5.00 Ry     beta= 0.70
     Davidson diagonalization with overlap

---- Real-time Memory Report at c_bands before calling an iterative solver
            54 MiB given to the printing process from OS
             0 MiB allocation reported by mallinfo(arena+hblkhd)
          1267 MiB available memory on the node where the printing process lives
------------------
     ethr =  1.42E-09,  avg # of iterations =  4.0

     negative rho (up, down):  1.782E-01 0.000E+00

     total cpu time spent up to now is        1.7 secs

     total energy              =      -1.69194839 Ry
     estimated scf accuracy    <       0.00000019 Ry

     iteration # 24     ecut=     5.00 Ry     beta= 0.70
     Davidson diagonalization with overlap

---- Real-time Memory Report at c_bands before calling an iterative solver
            54 MiB given to the printing process from OS
             0 MiB allocation reported by mallinfo(arena+hblkhd)
          1267 MiB available memory on the node where the printing process lives
------------------
     ethr =  1.42E-09,  avg # of iterations =  2.0

     negative rho (up, down):  1.782E-01 0.000E+00

     total cpu time spent up to now is        1.8 secs

     total energy              =      -1.69194698 Ry
     estimated scf accuracy    <       0.00000011 Ry

     iteration # 25     ecut=     5.00 Ry     beta= 0.70
     Davidson diagonalization with overlap

---- Real-time Memory Report at c_bands before calling an iterative solver
            54 MiB given to the printing process from OS
             0 MiB allocation reported by mallinfo(arena+hblkhd)
          1267 MiB available memory on the node where the printing process lives
------------------
     ethr =  1.42E-09,  avg # of iterations =  1.0

     negative rho (up, down):  1.782E-01 0.000E+00

     total cpu time spent up to now is        1.9 secs

     total energy              =      -1.69190955 Ry
     estimated scf accuracy    <       0.00000008 Ry

     iteration # 26     ecut=     5.00 Ry     beta= 0.70
     Davidson diagonalization with overlap

---- Real-time Memory Report at c_bands before calling an iterative solver
            54 MiB given to the printing process from OS
             0 MiB allocation reported by mallinfo(arena+hblkhd)
          1267 MiB available memory on the node where the printing process lives
------------------
     ethr =  1.42E-09,  avg # of iterations =  4.0

     negative rho (up, down):  1.782E-01 0.000E+00

     total cpu time spent up to now is        2.0 secs

     total energy              =      -1.69192596 Ry
     estimated scf accuracy    <       0.00000072 Ry

     iteration # 27     ecut=     5.00 Ry     beta= 0.70
     Davidson diagonalization with overlap

---- Real-time Memory Report at c_bands before calling an iterative solver
            54 MiB given to the printing process from OS
             0 MiB allocation reported by mallinfo(arena+hblkhd)
          1267 MiB available memory on the node where the printing process lives
------------------
     ethr =  1.42E-09,  avg # of iterations =  4.0

     negative rho (up, down):  1.782E-01 0.000E+00

     total cpu time spent up to now is        2.0 secs

     total energy              =      -1.69194422 Ry
     estimated scf accuracy    <       0.00000005 Ry

     iteration # 28     ecut=     5.00 Ry     beta= 0.70
     Davidson diagonalization with overlap

---- Real-time Memory Report at c_bands before calling an iterative solver
            54 MiB given to the printing process from OS
             0 MiB allocation reported by mallinfo(arena+hblkhd)
          1267 MiB available memory on the node where the printing process lives
------------------
     ethr =  1.42E-09,  avg # of iterations =  4.0

     negative rho (up, down):  1.782E-01 0.000E+00

     total cpu time spent up to now is        2.1 secs

     total energy              =      -1.69194736 Ry
     estimated scf accuracy    <       0.00000008 Ry

     iteration # 29     ecut=     5.00 Ry     beta= 0.70
     Davidson diagonalization with overlap

---- Real-time Memory Report at c_bands before calling an iterative solver
            54 MiB given to the printing process from OS
             0 MiB allocation reported by mallinfo(arena+hblkhd)
          1267 MiB available memory on the node where the printing process lives
------------------
     ethr =  1.42E-09,  avg # of iterations =  1.0

     negative rho (up, down):  1.782E-01 0.000E+00

     total cpu time spent up to now is        2.2 secs

     total energy              =      -1.69194746 Ry
     estimated scf accuracy    <       0.00000010 Ry

     iteration # 30     ecut=     5.00 Ry     beta= 0.70
     Davidson diagonalization with overlap

---- Real-time Memory Report at c_bands before calling an iterative solver
            54 MiB given to the printing process from OS
             0 MiB allocation reported by mallinfo(arena+hblkhd)
          1267 MiB available memory on the node where the printing process lives
------------------
     ethr =  1.42E-09,  avg # of iterations =  1.0

     negative rho (up, down):  1.782E-01 0.000E+00

     total cpu time spent up to now is        2.2 secs

     total energy              =      -1.69194622 Ry
     estimated scf accuracy    <       0.00000012 Ry

     iteration # 31     ecut=     5.00 Ry     beta= 0.70
     Davidson diagonalization with overlap

---- Real-time Memory Report at c_bands before calling an iterative solver
            54 MiB given to the printing process from OS
             0 MiB allocation reported by mallinfo(arena+hblkhd)
          1267 MiB available memory on the node where the printing process lives
------------------
     ethr =  1.42E-09,  avg # of iterations =  1.0

     negative rho (up, down):  1.782E-01 0.000E+00

     total cpu time spent up to now is        2.3 secs

     total energy              =      -1.69194606 Ry
     estimated scf accuracy    <       0.00000001 Ry

     iteration # 32     ecut=     5.00 Ry     beta= 0.70
     Davidson diagonalization with overlap

---- Real-time Memory Report at c_bands before calling an iterative solver
            54 MiB given to the printing process from OS
             0 MiB allocation reported by mallinfo(arena+hblkhd)
          1267 MiB available memory on the node where the printing process lives
------------------
     ethr =  7.21E-10,  avg # of iterations =  2.0

     negative rho (up, down):  1.782E-01 0.000E+00

     total cpu time spent up to now is        2.4 secs

     total energy              =      -1.69194873 Ry
     estimated scf accuracy    <       0.00000004 Ry

     iteration # 33     ecut=     5.00 Ry     beta= 0.70
     Davidson diagonalization with overlap

---- Real-time Memory Report at c_bands before calling an iterative solver
            54 MiB given to the printing process from OS
             0 MiB allocation reported by mallinfo(arena+hblkhd)
          1267 MiB available memory on the node where the printing process lives
------------------
     ethr =  7.21E-10,  avg # of iterations =  2.0

     negative rho (up, down):  1.781E-01 0.000E+00

     total cpu time spent up to now is        2.5 secs

     total energy              =      -1.69194930 Ry
     estimated scf accuracy    <       0.00000017 Ry

     iteration # 34     ecut=     5.00 Ry     beta= 0.70
     Davidson diagonalization with overlap

---- Real-time Memory Report at c_bands before calling an iterative solver
            54 MiB given to the printing process from OS
             0 MiB allocation reported by mallinfo(arena+hblkhd)
          1267 MiB available memory on the node where the printing process lives
------------------
     ethr =  7.21E-10,  avg # of iterations =  2.0

     negative rho (up, down):  1.781E-01 0.000E+00

     total cpu time spent up to now is        2.5 secs

     total energy              =      -1.69195717 Ry
     estimated scf accuracy    <       0.00000027 Ry

     iteration # 35     ecut=     5.00 Ry     beta= 0.70
     Davidson diagonalization with overlap

---- Real-time Memory Report at c_bands before calling an iterative solver
            54 MiB given to the printing process from OS
             0 MiB allocation reported by mallinfo(arena+hblkhd)
          1267 MiB available memory on the node where the printing process lives
------------------
     ethr =  7.21E-10,  avg # of iterations =  4.0

     negative rho (up, down):  1.782E-01 0.000E+00

     total cpu time spent up to now is        2.6 secs

     total energy              =      -1.69193532 Ry
     estimated scf accuracy    <       0.00000008 Ry

     iteration # 36     ecut=     5.00 Ry     beta= 0.70
     Davidson diagonalization with overlap

---- Real-time Memory Report at c_bands before calling an iterative solver
            54 MiB given to the printing process from OS
             0 MiB allocation reported by mallinfo(arena+hblkhd)
          1267 MiB available memory on the node where the printing process lives
------------------
     ethr =  7.21E-10,  avg # of iterations =  4.0

     negative rho (up, down):  1.782E-01 0.000E+00

     total cpu time spent up to now is        2.7 secs

     total energy              =      -1.69191949 Ry
     estimated scf accuracy    <       0.00000053 Ry

     iteration # 37     ecut=     5.00 Ry     beta= 0.70
     Davidson diagonalization with overlap

---- Real-time Memory Report at c_bands before calling an iterative solver
            54 MiB given to the printing process from OS
             0 MiB allocation reported by mallinfo(arena+hblkhd)
          1267 MiB available memory on the node where the printing process lives
------------------
     ethr =  7.21E-10,  avg # of iterations =  3.0

     negative rho (up, down):  1.782E-01 0.000E+00

     total cpu time spent up to now is        2.8 secs

     total energy              =      -1.69193027 Ry
     estimated scf accuracy    <       0.00001606 Ry

     iteration # 38     ecut=     5.00 Ry     beta= 0.70
     Davidson diagonalization with overlap

---- Real-time Memory Report at c_bands before calling an iterative solver
            54 MiB given to the printing process from OS
             0 MiB allocation reported by mallinfo(arena+hblkhd)
          1267 MiB available memory on the node where the printing process lives
------------------
     ethr =  7.21E-10,  avg # of iterations =  4.0

     negative rho (up, down):  1.782E-01 0.000E+00

     total cpu time spent up to now is        2.9 secs

     total energy              =      -1.69192053 Ry
     estimated scf accuracy    <       0.00000002 Ry

     iteration # 39     ecut=     5.00 Ry     beta= 0.70
     Davidson diagonalization with overlap

---- Real-time Memory Report at c_bands before calling an iterative solver
            54 MiB given to the printing process from OS
             0 MiB allocation reported by mallinfo(arena+hblkhd)
          1267 MiB available memory on the node where the printing process lives
------------------
     ethr =  7.21E-10,  avg # of iterations =  4.0

     negative rho (up, down):  1.782E-01 0.000E+00

     total cpu time spent up to now is        3.1 secs

     total energy              =      -1.69190986 Ry
     estimated scf accuracy    <       0.00000001 Ry

     iteration # 40     ecut=     5.00 Ry     beta= 0.70
     Davidson diagonalization with overlap

---- Real-time Memory Report at c_bands before calling an iterative solver
            54 MiB given to the printing process from OS
             0 MiB allocation reported by mallinfo(arena+hblkhd)
          1267 MiB available memory on the node where the printing process lives
------------------
     ethr =  7.21E-10,  avg # of iterations =  4.0

     negative rho (up, down):  1.782E-01 0.000E+00

     total cpu time spent up to now is        3.2 secs

     total energy              =      -1.69191166 Ry
     estimated scf accuracy    <       0.00000174 Ry

     iteration # 41     ecut=     5.00 Ry     beta= 0.70
     Davidson diagonalization with overlap

---- Real-time Memory Report at c_bands before calling an iterative solver
            54 MiB given to the printing process from OS
             0 MiB allocation reported by mallinfo(arena+hblkhd)
          1267 MiB available memory on the node where the printing process lives
------------------
     ethr =  7.21E-10,  avg # of iterations =  3.0

     negative rho (up, down):  1.782E-01 0.000E+00

     total cpu time spent up to now is        3.2 secs

     total energy              =      -1.69192001 Ry
     estimated scf accuracy    <       0.00000179 Ry

     iteration # 42     ecut=     5.00 Ry     beta= 0.70
     Davidson diagonalization with overlap

---- Real-time Memory Report at c_bands before calling an iterative solver
            54 MiB given to the printing process from OS
             0 MiB allocation reported by mallinfo(arena+hblkhd)
          1267 MiB available memory on the node where the printing process lives
------------------
     ethr =  7.21E-10,  avg # of iterations =  4.0

     negative rho (up, down):  1.782E-01 0.000E+00

     total cpu time spent up to now is        3.3 secs

     total energy              =      -1.69192592 Ry
     estimated scf accuracy    <       0.00000028 Ry

     iteration # 43     ecut=     5.00 Ry     beta= 0.70
     Davidson diagonalization with overlap

---- Real-time Memory Report at c_bands before calling an iterative solver
            54 MiB given to the printing process from OS
             0 MiB allocation reported by mallinfo(arena+hblkhd)
          1267 MiB available memory on the node where the printing process lives
------------------
     ethr =  7.21E-10,  avg # of iterations =  2.0

     negative rho (up, down):  1.782E-01 0.000E+00

     total cpu time spent up to now is        3.4 secs

     total energy              =      -1.69190695 Ry
     estimated scf accuracy    <       0.00000004 Ry

     iteration # 44     ecut=     5.00 Ry     beta= 0.70
     Davidson diagonalization with overlap

---- Real-time Memory Report at c_bands before calling an iterative solver
            54 MiB given to the printing process from OS
             0 MiB allocation reported by mallinfo(arena+hblkhd)
          1267 MiB available memory on the node where the printing process lives
------------------
     ethr =  7.21E-10,  avg # of iterations =  4.0

     negative rho (up, down):  1.801E-01 0.000E+00

     total cpu time spent up to now is        3.5 secs

     total energy              =      -1.69133713 Ry
     estimated scf accuracy    <       0.00000153 Ry

     iteration # 45     ecut=     5.00 Ry     beta= 0.70
     Davidson diagonalization with overlap

---- Real-time Memory Report at c_bands before calling an iterative solver
            54 MiB given to the printing process from OS
             0 MiB allocation reported by mallinfo(arena+hblkhd)
          1267 MiB available memory on the node where the printing process lives
------------------
     ethr =  7.21E-10,  avg # of iterations =  5.0

     negative rho (up, down):  1.769E-01 0.000E+00

     total cpu time spent up to now is        3.5 secs

     total energy              =      -1.69228251 Ry
     estimated scf accuracy    <       0.00119540 Ry

     iteration # 46     ecut=     5.00 Ry     beta= 0.70
     Davidson diagonalization with overlap

---- Real-time Memory Report at c_bands before calling an iterative solver
            54 MiB given to the printing process from OS
             0 MiB allocation reported by mallinfo(arena+hblkhd)
          1267 MiB available memory on the node where the printing process lives
------------------
     ethr =  7.21E-10,  avg # of iterations =  6.0

     negative rho (up, down):  1.780E-01 0.000E+00

     total cpu time spent up to now is        3.6 secs

     total energy              =      -1.69196290 Ry
     estimated scf accuracy    <       0.00102318 Ry

     iteration # 47     ecut=     5.00 Ry     beta= 0.70
     Davidson diagonalization with overlap

---- Real-time Memory Report at c_bands before calling an iterative solver
            54 MiB given to the printing process from OS
             0 MiB allocation reported by mallinfo(arena+hblkhd)
          1267 MiB available memory on the node where the printing process lives
------------------
     ethr =  7.21E-10,  avg # of iterations =  5.0

     negative rho (up, down):  1.781E-01 0.000E+00

     total cpu time spent up to now is        3.7 secs

     total energy              =      -1.69197003 Ry
     estimated scf accuracy    <       0.00003680 Ry

     iteration # 48     ecut=     5.00 Ry     beta= 0.70
     Davidson diagonalization with overlap

---- Real-time Memory Report at c_bands before calling an iterative solver
            54 MiB given to the printing process from OS
             0 MiB allocation reported by mallinfo(arena+hblkhd)
          1267 MiB available memory on the node where the printing process lives
------------------
     ethr =  7.21E-10,  avg # of iterations =  3.0

     negative rho (up, down):  1.781E-01 0.000E+00

     total cpu time spent up to now is        3.8 secs

     total energy              =      -1.69196291 Ry
     estimated scf accuracy    <       0.00000820 Ry

     iteration # 49     ecut=     5.00 Ry     beta= 0.70
     Davidson diagonalization with overlap

---- Real-time Memory Report at c_bands before calling an iterative solver
            54 MiB given to the printing process from OS
             0 MiB allocation reported by mallinfo(arena+hblkhd)
          1267 MiB available memory on the node where the printing process lives
------------------
     ethr =  7.21E-10,  avg # of iterations =  3.0

     negative rho (up, down):  1.781E-01 0.000E+00

     total cpu time spent up to now is        3.9 secs

     total energy              =      -1.69196165 Ry
     estimated scf accuracy    <       0.00000137 Ry

     iteration # 50     ecut=     5.00 Ry     beta= 0.70
     Davidson diagonalization with overlap

---- Real-time Memory Report at c_bands before calling an iterative solver
            54 MiB given to the printing process from OS
             0 MiB allocation reported by mallinfo(arena+hblkhd)
          1267 MiB available memory on the node where the printing process lives
------------------
     ethr =  7.21E-10,  avg # of iterations =  1.0

     negative rho (up, down):  1.782E-01 0.000E+00

     total cpu time spent up to now is        3.9 secs

     total energy              =      -1.69192277 Ry
     estimated scf accuracy    <       0.00000169 Ry

     iteration # 51     ecut=     5.00 Ry     beta= 0.70
     Davidson diagonalization with overlap

---- Real-time Memory Report at c_bands before calling an iterative solver
            54 MiB given to the printing process from OS
             0 MiB allocation reported by mallinfo(arena+hblkhd)
          1267 MiB available memory on the node where the printing process lives
------------------
     ethr =  7.21E-10,  avg # of iterations =  4.0

     negative rho (up, down):  1.782E-01 0.000E+00

     total cpu time spent up to now is        4.0 secs

     total energy              =      -1.69192463 Ry
     estimated scf accuracy    <       0.00000001 Ry

     iteration # 52     ecut=     5.00 Ry     beta= 0.70
     Davidson diagonalization with overlap

---- Real-time Memory Report at c_bands before calling an iterative solver
            54 MiB given to the printing process from OS
             0 MiB allocation reported by mallinfo(arena+hblkhd)
          1267 MiB available memory on the node where the printing process lives
------------------
     ethr =  6.94E-10,  avg # of iterations =  2.0

     negative rho (up, down):  1.782E-01 0.000E+00

     total cpu time spent up to now is        4.1 secs

     total energy              =      -1.69192431 Ry
     estimated scf accuracy    <       0.00000001 Ry

     iteration # 53     ecut=     5.00 Ry     beta= 0.70
     Davidson diagonalization with overlap

---- Real-time Memory Report at c_bands before calling an iterative solver
            54 MiB given to the printing process from OS
             0 MiB allocation reported by mallinfo(arena+hblkhd)
          1267 MiB available memory on the node where the printing process lives
------------------
     ethr =  6.69E-10,  avg # of iterations =  1.0

     negative rho (up, down):  1.782E-01 0.000E+00

     total cpu time spent up to now is        4.1 secs

     total energy              =      -1.69192362 Ry
     estimated scf accuracy    <       0.00000001 Ry

     iteration # 54     ecut=     5.00 Ry     beta= 0.70
     Davidson diagonalization with overlap

---- Real-time Memory Report at c_bands before calling an iterative solver
            54 MiB given to the printing process from OS
             0 MiB allocation reported by mallinfo(arena+hblkhd)
          1267 MiB available memory on the node where the printing process lives
------------------
     ethr =  6.51E-10,  avg # of iterations =  2.0

     negative rho (up, down):  1.782E-01 0.000E+00

     total cpu time spent up to now is        4.2 secs

     total energy              =      -1.69192365 Ry
     estimated scf accuracy    <       0.00000001 Ry

     iteration # 55     ecut=     5.00 Ry     beta= 0.70
     Davidson diagonalization with overlap

---- Real-time Memory Report at c_bands before calling an iterative solver
            54 MiB given to the printing process from OS
             0 MiB allocation reported by mallinfo(arena+hblkhd)
          1267 MiB available memory on the node where the printing process lives
------------------
     ethr =  6.51E-10,  avg # of iterations =  1.0

     negative rho (up, down):  1.782E-01 0.000E+00

     total cpu time spent up to now is        4.3 secs

     total energy              =      -1.69192193 Ry
     estimated scf accuracy    <       0.00000001 Ry

     iteration # 56     ecut=     5.00 Ry     beta= 0.70
     Davidson diagonalization with overlap

---- Real-time Memory Report at c_bands before calling an iterative solver
            54 MiB given to the printing process from OS
             0 MiB allocation reported by mallinfo(arena+hblkhd)
          1267 MiB available memory on the node where the printing process lives
------------------
     ethr =  6.07E-10,  avg # of iterations =  3.0

     negative rho (up, down):  1.782E-01 0.000E+00

     total cpu time spent up to now is        4.4 secs

     total energy              =      -1.69192128 Ry
     estimated scf accuracy    <       0.00000029 Ry

     iteration # 57     ecut=     5.00 Ry     beta= 0.70
     Davidson diagonalization with overlap

---- Real-time Memory Report at c_bands before calling an iterative solver
            54 MiB given to the printing process from OS
             0 MiB allocation reported by mallinfo(arena+hblkhd)
          1267 MiB available memory on the node where the printing process lives
------------------
     ethr =  6.07E-10,  avg # of iterations =  1.0

     negative rho (up, down):  1.782E-01 0.000E+00

     total cpu time spent up to now is        4.4 secs

     total energy              =      -1.69190986 Ry
     estimated scf accuracy    <       0.00000028 Ry

     iteration # 58     ecut=     5.00 Ry     beta= 0.70
     Davidson diagonalization with overlap

---- Real-time Memory Report at c_bands before calling an iterative solver
            54 MiB given to the printing process from OS
             0 MiB allocation reported by mallinfo(arena+hblkhd)
          1267 MiB available memory on the node where the printing process lives
------------------
     ethr =  6.07E-10,  avg # of iterations =  4.0

     negative rho (up, down):  1.782E-01 0.000E+00

     total cpu time spent up to now is        4.5 secs

     total energy              =      -1.69194275 Ry
     estimated scf accuracy    <       0.00000096 Ry

     iteration # 59     ecut=     5.00 Ry     beta= 0.70
     Davidson diagonalization with overlap

---- Real-time Memory Report at c_bands before calling an iterative solver
            54 MiB given to the printing process from OS
             0 MiB allocation reported by mallinfo(arena+hblkhd)
          1267 MiB available memory on the node where the printing process lives
------------------
     ethr =  6.07E-10,  avg # of iterations =  5.0

     negative rho (up, down):  1.782E-01 0.000E+00

     total cpu time spent up to now is        4.6 secs

     total energy              =      -1.69191837 Ry
     estimated scf accuracy    <       0.00000031 Ry

     iteration # 60     ecut=     5.00 Ry     beta= 0.70
     Davidson diagonalization with overlap

---- Real-time Memory Report at c_bands before calling an iterative solver
            54 MiB given to the printing process from OS
             0 MiB allocation reported by mallinfo(arena+hblkhd)
          1267 MiB available memory on the node where the printing process lives
------------------
     ethr =  6.07E-10,  avg # of iterations =  4.0

     negative rho (up, down):  1.782E-01 0.000E+00

     total cpu time spent up to now is        4.7 secs

     total energy              =      -1.69192322 Ry
     estimated scf accuracy    <       0.00000001 Ry

     iteration # 61     ecut=     5.00 Ry     beta= 0.70
     Davidson diagonalization with overlap

---- Real-time Memory Report at c_bands before calling an iterative solver
            54 MiB given to the printing process from OS
             0 MiB allocation reported by mallinfo(arena+hblkhd)
          1267 MiB available memory on the node where the printing process lives
------------------
     ethr =  6.07E-10,  avg # of iterations =  2.0

     negative rho (up, down):  1.782E-01 0.000E+00

     total cpu time spent up to now is        4.7 secs

     total energy              =      -1.69192208 Ry
     estimated scf accuracy    <       0.00000012 Ry

     iteration # 62     ecut=     5.00 Ry     beta= 0.70
     Davidson diagonalization with overlap

---- Real-time Memory Report at c_bands before calling an iterative solver
            54 MiB given to the printing process from OS
             0 MiB allocation reported by mallinfo(arena+hblkhd)
          1267 MiB available memory on the node where the printing process lives
------------------
     ethr =  6.07E-10,  avg # of iterations =  2.0

     negative rho (up, down):  1.782E-01 0.000E+00

     total cpu time spent up to now is        4.8 secs

     total energy              =      -1.69192446 Ry
     estimated scf accuracy    <       0.00000002 Ry

     iteration # 63     ecut=     5.00 Ry     beta= 0.70
     Davidson diagonalization with overlap

---- Real-time Memory Report at c_bands before calling an iterative solver
            54 MiB given to the printing process from OS
             0 MiB allocation reported by mallinfo(arena+hblkhd)
          1267 MiB available memory on the node where the printing process lives
------------------
     ethr =  6.07E-10,  avg # of iterations =  1.0

     negative rho (up, down):  1.782E-01 0.000E+00

     total cpu time spent up to now is        4.9 secs

     total energy              =      -1.69192115 Ry
     estimated scf accuracy    <       0.00000041 Ry

     iteration # 64     ecut=     5.00 Ry     beta= 0.70
     Davidson diagonalization with overlap

---- Real-time Memory Report at c_bands before calling an iterative solver
            54 MiB given to the printing process from OS
             0 MiB allocation reported by mallinfo(arena+hblkhd)
          1267 MiB available memory on the node where the printing process lives
------------------
     ethr =  6.07E-10,  avg # of iterations =  2.0

     negative rho (up, down):  1.782E-01 0.000E+00

     total cpu time spent up to now is        4.9 secs

     total energy              =      -1.69190604 Ry
     estimated scf accuracy    <       0.00000024 Ry

     iteration # 65     ecut=     5.00 Ry     beta= 0.70
     Davidson diagonalization with overlap

---- Real-time Memory Report at c_bands before calling an iterative solver
            54 MiB given to the printing process from OS
             0 MiB allocation reported by mallinfo(arena+hblkhd)
          1267 MiB available memory on the node where the printing process lives
------------------
     ethr =  6.07E-10,  avg # of iterations =  4.0

     negative rho (up, down):  1.782E-01 0.000E+00

     total cpu time spent up to now is        5.0 secs

     total energy              =      -1.69189925 Ry
     estimated scf accuracy    <       0.00000048 Ry

     iteration # 66     ecut=     5.00 Ry     beta= 0.70
     Davidson diagonalization with overlap

---- Real-time Memory Report at c_bands before calling an iterative solver
            54 MiB given to the printing process from OS
             0 MiB allocation reported by mallinfo(arena+hblkhd)
          1267 MiB available memory on the node where the printing process lives
------------------
     ethr =  6.07E-10,  avg # of iterations =  3.0

     negative rho (up, down):  1.782E-01 0.000E+00

     total cpu time spent up to now is        5.1 secs

     total energy              =      -1.69190710 Ry
     estimated scf accuracy    <       0.00000280 Ry

     iteration # 67     ecut=     5.00 Ry     beta= 0.70
     Davidson diagonalization with overlap

---- Real-time Memory Report at c_bands before calling an iterative solver
            54 MiB given to the printing process from OS
             0 MiB allocation reported by mallinfo(arena+hblkhd)
          1267 MiB available memory on the node where the printing process lives
------------------
     ethr =  6.07E-10,  avg # of iterations =  3.0

     negative rho (up, down):  1.782E-01 0.000E+00

     total cpu time spent up to now is        5.2 secs

     total energy              =      -1.69192201 Ry
     estimated scf accuracy    <       0.00000065 Ry

     iteration # 68     ecut=     5.00 Ry     beta= 0.70
     Davidson diagonalization with overlap

---- Real-time Memory Report at c_bands before calling an iterative solver
            54 MiB given to the printing process from OS
             0 MiB allocation reported by mallinfo(arena+hblkhd)
          1267 MiB available memory on the node where the printing process lives
------------------
     ethr =  6.07E-10,  avg # of iterations =  4.0

     negative rho (up, down):  1.783E-01 0.000E+00

     total cpu time spent up to now is        5.3 secs

     total energy              =      -1.69183857 Ry
     estimated scf accuracy    <       0.00000008 Ry

     iteration # 69     ecut=     5.00 Ry     beta= 0.70
     Davidson diagonalization with overlap

---- Real-time Memory Report at c_bands before calling an iterative solver
            54 MiB given to the printing process from OS
             0 MiB allocation reported by mallinfo(arena+hblkhd)
          1267 MiB available memory on the node where the printing process lives
------------------
     ethr =  6.07E-10,  avg # of iterations =  4.0

     negative rho (up, down):  1.782E-01 0.000E+00

     total cpu time spent up to now is        5.3 secs

     total energy              =      -1.69191795 Ry
     estimated scf accuracy    <       0.00001081 Ry

     iteration # 70     ecut=     5.00 Ry     beta= 0.70
     Davidson diagonalization with overlap

---- Real-time Memory Report at c_bands before calling an iterative solver
            54 MiB given to the printing process from OS
             0 MiB allocation reported by mallinfo(arena+hblkhd)
          1267 MiB available memory on the node where the printing process lives
------------------
     ethr =  6.07E-10,  avg # of iterations =  4.0

     negative rho (up, down):  1.782E-01 0.000E+00

     total cpu time spent up to now is        5.4 secs

     total energy              =      -1.69192187 Ry
     estimated scf accuracy    <       0.00001328 Ry

     iteration # 71     ecut=     5.00 Ry     beta= 0.70
     Davidson diagonalization with overlap

---- Real-time Memory Report at c_bands before calling an iterative solver
            54 MiB given to the printing process from OS
             0 MiB allocation reported by mallinfo(arena+hblkhd)
          1267 MiB available memory on the node where the printing process lives
------------------
     ethr =  6.07E-10,  avg # of iterations =  4.0

     negative rho (up, down):  1.782E-01 0.000E+00

     total cpu time spent up to now is        5.5 secs

     total energy              =      -1.69193109 Ry
     estimated scf accuracy    <       0.00000190 Ry

     iteration # 72     ecut=     5.00 Ry     beta= 0.70
     Davidson diagonalization with overlap

---- Real-time Memory Report at c_bands before calling an iterative solver
            54 MiB given to the printing process from OS
             0 MiB allocation reported by mallinfo(arena+hblkhd)
          1267 MiB available memory on the node where the printing process lives
------------------
     ethr =  6.07E-10,  avg # of iterations =  4.0

     negative rho (up, down):  1.782E-01 0.000E+00

     total cpu time spent up to now is        5.6 secs

     total energy              =      -1.69194097 Ry
     estimated scf accuracy    <       0.00000017 Ry

     iteration # 73     ecut=     5.00 Ry     beta= 0.70
     Davidson diagonalization with overlap

---- Real-time Memory Report at c_bands before calling an iterative solver
            54 MiB given to the printing process from OS
             0 MiB allocation reported by mallinfo(arena+hblkhd)
          1267 MiB available memory on the node where the printing process lives
------------------
     ethr =  6.07E-10,  avg # of iterations =  4.0

     negative rho (up, down):  1.782E-01 0.000E+00

     total cpu time spent up to now is        5.6 secs

     total energy              =      -1.69192814 Ry
     estimated scf accuracy    <       0.00000017 Ry

     iteration # 74     ecut=     5.00 Ry     beta= 0.70
     Davidson diagonalization with overlap

---- Real-time Memory Report at c_bands before calling an iterative solver
            54 MiB given to the printing process from OS
             0 MiB allocation reported by mallinfo(arena+hblkhd)
          1267 MiB available memory on the node where the printing process lives
------------------
     ethr =  6.07E-10,  avg # of iterations =  4.0

     negative rho (up, down):  1.782E-01 0.000E+00

     total cpu time spent up to now is        5.7 secs

     total energy              =      -1.69190932 Ry
     estimated scf accuracy    <       0.00000021 Ry

     iteration # 75     ecut=     5.00 Ry     beta= 0.70
     Davidson diagonalization with overlap

---- Real-time Memory Report at c_bands before calling an iterative solver
            54 MiB given to the printing process from OS
             0 MiB allocation reported by mallinfo(arena+hblkhd)
          1267 MiB available memory on the node where the printing process lives
------------------
     ethr =  6.07E-10,  avg # of iterations =  4.0

     negative rho (up, down):  1.782E-01 0.000E+00

     total cpu time spent up to now is        5.8 secs

     total energy              =      -1.69192039 Ry
     estimated scf accuracy    <       0.00000099 Ry

     iteration # 76     ecut=     5.00 Ry     beta= 0.70
     Davidson diagonalization with overlap

---- Real-time Memory Report at c_bands before calling an iterative solver
            54 MiB given to the printing process from OS
             0 MiB allocation reported by mallinfo(arena+hblkhd)
          1267 MiB available memory on the node where the printing process lives
------------------
     ethr =  6.07E-10,  avg # of iterations =  4.0

     negative rho (up, down):  1.782E-01 0.000E+00

     total cpu time spent up to now is        5.9 secs

     total energy              =      -1.69192177 Ry
     estimated scf accuracy    <       0.00000004 Ry

     iteration # 77     ecut=     5.00 Ry     beta= 0.70
     Davidson diagonalization with overlap

---- Real-time Memory Report at c_bands before calling an iterative solver
            54 MiB given to the printing process from OS
             0 MiB allocation reported by mallinfo(arena+hblkhd)
          1267 MiB available memory on the node where the printing process lives
------------------
     ethr =  6.07E-10,  avg # of iterations =  2.0

     negative rho (up, down):  1.782E-01 0.000E+00

     total cpu time spent up to now is        5.9 secs

     total energy              =      -1.69194055 Ry
     estimated scf accuracy    <       0.00000002 Ry

     iteration # 78     ecut=     5.00 Ry     beta= 0.70
     Davidson diagonalization with overlap

---- Real-time Memory Report at c_bands before calling an iterative solver
            54 MiB given to the printing process from OS
             0 MiB allocation reported by mallinfo(arena+hblkhd)
          1267 MiB available memory on the node where the printing process lives
------------------
     ethr =  6.07E-10,  avg # of iterations =  4.0

     negative rho (up, down):  1.782E-01 0.000E+00

     total cpu time spent up to now is        6.0 secs

     total energy              =      -1.69194280 Ry
     estimated scf accuracy    <       0.00000012 Ry

     iteration # 79     ecut=     5.00 Ry     beta= 0.70
     Davidson diagonalization with overlap

---- Real-time Memory Report at c_bands before calling an iterative solver
            54 MiB given to the printing process from OS
             0 MiB allocation reported by mallinfo(arena+hblkhd)
          1267 MiB available memory on the node where the printing process lives
------------------
     ethr =  6.07E-10,  avg # of iterations =  1.0

     negative rho (up, down):  1.782E-01 0.000E+00

     total cpu time spent up to now is        6.1 secs

     total energy              =      -1.69194277 Ry
     estimated scf accuracy    <       0.00000019 Ry

     iteration # 80     ecut=     5.00 Ry     beta= 0.70
     Davidson diagonalization with overlap

---- Real-time Memory Report at c_bands before calling an iterative solver
            54 MiB given to the printing process from OS
             0 MiB allocation reported by mallinfo(arena+hblkhd)
          1267 MiB available memory on the node where the printing process lives
------------------
     ethr =  6.07E-10,  avg # of iterations =  1.0

     negative rho (up, down):  1.782E-01 0.000E+00

     total cpu time spent up to now is        6.1 secs

     total energy              =      -1.69191964 Ry
     estimated scf accuracy    <       0.00000022 Ry

     iteration # 81     ecut=     5.00 Ry     beta= 0.70
     Davidson diagonalization with overlap

---- Real-time Memory Report at c_bands before calling an iterative solver
            54 MiB given to the printing process from OS
             0 MiB allocation reported by mallinfo(arena+hblkhd)
          1267 MiB available memory on the node where the printing process lives
------------------
     ethr =  6.07E-10,  avg # of iterations =  4.0

     negative rho (up, down):  1.782E-01 0.000E+00

     total cpu time spent up to now is        6.2 secs

     total energy              =      -1.69190835 Ry
     estimated scf accuracy    <       0.00000001 Ry

     iteration # 82     ecut=     5.00 Ry     beta= 0.70
     Davidson diagonalization with overlap

---- Real-time Memory Report at c_bands before calling an iterative solver
            54 MiB given to the printing process from OS
             0 MiB allocation reported by mallinfo(arena+hblkhd)
          1267 MiB available memory on the node where the printing process lives
------------------
     ethr =  5.83E-10,  avg # of iterations =  4.0

     negative rho (up, down):  1.782E-01 0.000E+00

     total cpu time spent up to now is        6.3 secs

     total energy              =      -1.69191958 Ry
     estimated scf accuracy    <       0.00000069 Ry

     iteration # 83     ecut=     5.00 Ry     beta= 0.70
     Davidson diagonalization with overlap

---- Real-time Memory Report at c_bands before calling an iterative solver
            54 MiB given to the printing process from OS
             0 MiB allocation reported by mallinfo(arena+hblkhd)
          1267 MiB available memory on the node where the printing process lives
------------------
     ethr =  5.83E-10,  avg # of iterations =  4.0

     negative rho (up, down):  1.782E-01 0.000E+00

     total cpu time spent up to now is        6.4 secs

     total energy              =      -1.69192204 Ry
     estimated scf accuracy    <       0.00000002 Ry

     iteration # 84     ecut=     5.00 Ry     beta= 0.70
     Davidson diagonalization with overlap

---- Real-time Memory Report at c_bands before calling an iterative solver
            54 MiB given to the printing process from OS
             0 MiB allocation reported by mallinfo(arena+hblkhd)
          1267 MiB available memory on the node where the printing process lives
------------------
     ethr =  5.83E-10,  avg # of iterations =  1.0

     negative rho (up, down):  1.782E-01 0.000E+00

     total cpu time spent up to now is        6.4 secs

     total energy              =      -1.69190886 Ry
     estimated scf accuracy    <       0.00000001 Ry

     iteration # 85     ecut=     5.00 Ry     beta= 0.70
     Davidson diagonalization with overlap

---- Real-time Memory Report at c_bands before calling an iterative solver
            54 MiB given to the printing process from OS
             0 MiB allocation reported by mallinfo(arena+hblkhd)
          1267 MiB available memory on the node where the printing process lives
------------------
     ethr =  5.83E-10,  avg # of iterations =  4.0

     negative rho (up, down):  1.782E-01 0.000E+00

     total cpu time spent up to now is        6.5 secs

     total energy              =      -1.69192033 Ry
     estimated scf accuracy    <       0.00000080 Ry

     iteration # 86     ecut=     5.00 Ry     beta= 0.70
     Davidson diagonalization with overlap

---- Real-time Memory Report at c_bands before calling an iterative solver
            54 MiB given to the printing process from OS
             0 MiB allocation reported by mallinfo(arena+hblkhd)
          1267 MiB available memory on the node where the printing process lives
------------------
     ethr =  5.83E-10,  avg # of iterations =  4.0

     negative rho (up, down):  1.782E-01 0.000E+00

     total cpu time spent up to now is        6.6 secs

     total energy              =      -1.69192362 Ry
     estimated scf accuracy    <       0.00000002 Ry

     iteration # 87     ecut=     5.00 Ry     beta= 0.70
     Davidson diagonalization with overlap

---- Real-time Memory Report at c_bands before calling an iterative solver
            54 MiB given to the printing process from OS
             0 MiB allocation reported by mallinfo(arena+hblkhd)
          1267 MiB available memory on the node where the printing process lives
------------------
     ethr =  5.83E-10,  avg # of iterations =  2.0

     negative rho (up, down):  1.782E-01 0.000E+00

     total cpu time spent up to now is        6.7 secs

     total energy              =      -1.69192434 Ry
     estimated scf accuracy    <       0.00000008 Ry

     iteration # 88     ecut=     5.00 Ry     beta= 0.70
     Davidson diagonalization with overlap

---- Real-time Memory Report at c_bands before calling an iterative solver
            54 MiB given to the printing process from OS
             0 MiB allocation reported by mallinfo(arena+hblkhd)
          1267 MiB available memory on the node where the printing process lives
------------------
     ethr =  5.83E-10,  avg # of iterations =  1.0

     negative rho (up, down):  1.782E-01 0.000E+00

     total cpu time spent up to now is        6.7 secs

     total energy              =      -1.69192451 Ry
     estimated scf accuracy    <       0.00000017 Ry

     iteration # 89     ecut=     5.00 Ry     beta= 0.70
     Davidson diagonalization with overlap

---- Real-time Memory Report at c_bands before calling an iterative solver
            54 MiB given to the printing process from OS
             0 MiB allocation reported by mallinfo(arena+hblkhd)
          1267 MiB available memory on the node where the printing process lives
------------------
     ethr =  5.83E-10,  avg # of iterations =  1.0

     negative rho (up, down):  1.775E-01 0.000E+00

     total cpu time spent up to now is        6.8 secs

     total energy              =      -1.69213617 Ry
     estimated scf accuracy    <       0.00000013 Ry

     iteration # 90     ecut=     5.00 Ry     beta= 0.70
     Davidson diagonalization with overlap

---- Real-time Memory Report at c_bands before calling an iterative solver
            54 MiB given to the printing process from OS
             0 MiB allocation reported by mallinfo(arena+hblkhd)
          1267 MiB available memory on the node where the printing process lives
------------------
     ethr =  5.83E-10,  avg # of iterations =  5.0

     negative rho (up, down):  1.780E-01 0.000E+00

     total cpu time spent up to now is        6.9 secs

     total energy              =      -1.69202511 Ry
     estimated scf accuracy    <       0.00050572 Ry

     iteration # 91     ecut=     5.00 Ry     beta= 0.70
     Davidson diagonalization with overlap

---- Real-time Memory Report at c_bands before calling an iterative solver
            54 MiB given to the printing process from OS
             0 MiB allocation reported by mallinfo(arena+hblkhd)
          1267 MiB available memory on the node where the printing process lives
------------------
     ethr =  5.83E-10,  avg # of iterations =  5.0

     negative rho (up, down):  1.779E-01 0.000E+00

     total cpu time spent up to now is        7.0 secs

     total energy              =      -1.69202910 Ry
     estimated scf accuracy    <       0.00000327 Ry

     iteration # 92     ecut=     5.00 Ry     beta= 0.70
     Davidson diagonalization with overlap

---- Real-time Memory Report at c_bands before calling an iterative solver
            54 MiB given to the printing process from OS
             0 MiB allocation reported by mallinfo(arena+hblkhd)
          1267 MiB available memory on the node where the printing process lives
------------------
     ethr =  5.83E-10,  avg # of iterations =  4.0

     negative rho (up, down):  1.779E-01 0.000E+00

     total cpu time spent up to now is        7.0 secs

     total energy              =      -1.69204415 Ry
     estimated scf accuracy    <       0.00008494 Ry

     iteration # 93     ecut=     5.00 Ry     beta= 0.70
     Davidson diagonalization with overlap

---- Real-time Memory Report at c_bands before calling an iterative solver
            54 MiB given to the printing process from OS
             0 MiB allocation reported by mallinfo(arena+hblkhd)
          1267 MiB available memory on the node where the printing process lives
------------------
     ethr =  5.83E-10,  avg # of iterations =  2.0

     negative rho (up, down):  1.781E-01 0.000E+00

     total cpu time spent up to now is        7.1 secs

     total energy              =      -1.69195877 Ry
     estimated scf accuracy    <       0.00007929 Ry

     iteration # 94     ecut=     5.00 Ry     beta= 0.70
     Davidson diagonalization with overlap

---- Real-time Memory Report at c_bands before calling an iterative solver
            54 MiB given to the printing process from OS
             0 MiB allocation reported by mallinfo(arena+hblkhd)
          1267 MiB available memory on the node where the printing process lives
------------------
     ethr =  5.83E-10,  avg # of iterations =  5.0

     negative rho (up, down):  1.782E-01 0.000E+00

     total cpu time spent up to now is        7.2 secs

     total energy              =      -1.69190854 Ry
     estimated scf accuracy    <       0.00003597 Ry

     iteration # 95     ecut=     5.00 Ry     beta= 0.70
     Davidson diagonalization with overlap

---- Real-time Memory Report at c_bands before calling an iterative solver
            54 MiB given to the printing process from OS
             0 MiB allocation reported by mallinfo(arena+hblkhd)
          1267 MiB available memory on the node where the printing process lives
------------------
     ethr =  5.83E-10,  avg # of iterations =  4.0

     negative rho (up, down):  1.782E-01 0.000E+00

     total cpu time spent up to now is        7.3 secs

     total energy              =      -1.69189613 Ry
     estimated scf accuracy    <       0.00000160 Ry

     iteration # 96     ecut=     5.00 Ry     beta= 0.70
     Davidson diagonalization with overlap

---- Real-time Memory Report at c_bands before calling an iterative solver
            54 MiB given to the printing process from OS
             0 MiB allocation reported by mallinfo(arena+hblkhd)
          1267 MiB available memory on the node where the printing process lives
------------------
     ethr =  5.83E-10,  avg # of iterations =  4.0

     negative rho (up, down):  1.782E-01 0.000E+00

     total cpu time spent up to now is        7.3 secs

     total energy              =      -1.69195134 Ry
     estimated scf accuracy    <       0.00000299 Ry

     iteration # 97     ecut=     5.00 Ry     beta= 0.70
     Davidson diagonalization with overlap

---- Real-time Memory Report at c_bands before calling an iterative solver
            54 MiB given to the printing process from OS
             0 MiB allocation reported by mallinfo(arena+hblkhd)
          1267 MiB available memory on the node where the printing process lives
------------------
     ethr =  5.83E-10,  avg # of iterations =  4.0

     negative rho (up, down):  1.782E-01 0.000E+00

     total cpu time spent up to now is        7.4 secs

     total energy              =      -1.69191698 Ry
     estimated scf accuracy    <       0.00000668 Ry

     iteration # 98     ecut=     5.00 Ry     beta= 0.70
     Davidson diagonalization with overlap

---- Real-time Memory Report at c_bands before calling an iterative solver
            54 MiB given to the printing process from OS
             0 MiB allocation reported by mallinfo(arena+hblkhd)
          1267 MiB available memory on the node where the printing process lives
------------------
     ethr =  5.83E-10,  avg # of iterations =  4.0

     negative rho (up, down):  1.782E-01 0.000E+00

     total cpu time spent up to now is        7.5 secs

     total energy              =      -1.69193566 Ry
     estimated scf accuracy    <       0.00000751 Ry

     iteration # 99     ecut=     5.00 Ry     beta= 0.70
     Davidson diagonalization with overlap

---- Real-time Memory Report at c_bands before calling an iterative solver
            54 MiB given to the printing process from OS
             0 MiB allocation reported by mallinfo(arena+hblkhd)
          1267 MiB available memory on the node where the printing process lives
------------------
     ethr =  5.83E-10,  avg # of iterations =  4.0

     negative rho (up, down):  1.782E-01 0.000E+00

     total cpu time spent up to now is        7.6 secs

     total energy              =      -1.69191086 Ry
     estimated scf accuracy    <       0.00000029 Ry

     iteration #100     ecut=     5.00 Ry     beta= 0.70
     Davidson diagonalization with overlap

---- Real-time Memory Report at c_bands before calling an iterative solver
            54 MiB given to the printing process from OS
             0 MiB allocation reported by mallinfo(arena+hblkhd)
          1267 MiB available memory on the node where the printing process lives
------------------
     ethr =  5.83E-10,  avg # of iterations =  4.0

     negative rho (up, down):  1.782E-01 0.000E+00

     total cpu time spent up to now is        7.7 secs

     total energy              =      -1.69191958 Ry
     estimated scf accuracy    <       0.00000201 Ry

     End of self-consistent calculation

     convergence NOT achieved after 100 iterations: stopping

     Writing config to output data dir ./.save/
     Message from routine punch:
     wavefunctions written to file

     init_run     :      0.08s CPU      0.08s WALL (       1 calls)
     electrons    :      7.53s CPU      7.58s WALL (       1 calls)

     Called by init_run:
     wfcinit      :      0.01s CPU      0.01s WALL (       1 calls)
     wfcinit:atom :      0.00s CPU      0.00s WALL (       1 calls)
     wfcinit:wfcr :      0.00s CPU      0.00s WALL (       1 calls)
     potinit      :      0.05s CPU      0.05s WALL (       1 calls)
     hinit0       :      0.01s CPU      0.01s WALL (       1 calls)

     Called by electrons:
     c_bands      :      1.46s CPU      1.47s WALL (     100 calls)
     sum_band     :      0.82s CPU      0.83s WALL (     100 calls)
     v_of_rho     :      4.04s CPU      4.06s WALL (     101 calls)
     v_h          :      0.21s CPU      0.21s WALL (     101 calls)
     v_xc         :      3.84s CPU      3.85s WALL (     101 calls)
     newd         :      0.26s CPU      0.26s WALL (     101 calls)
     mix_rho      :      0.90s CPU      0.91s WALL (     100 calls)

     Called by c_bands:
     init_us_2    :      0.03s CPU      0.03s WALL (     201 calls)
     init_us_2:cp :      0.03s CPU      0.03s WALL (     201 calls)
     cegterg      :      1.44s CPU      1.44s WALL (     100 calls)

     Called by sum_band:
     sum_band:wei :      0.00s CPU      0.00s WALL (     100 calls)
     sum_band:loo :      0.24s CPU      0.24s WALL (     100 calls)
     sum_band:buf :      0.00s CPU      0.00s WALL (     100 calls)
     sum_band:ini :      0.01s CPU      0.01s WALL (     100 calls)
     sum_band:cal :      0.00s CPU      0.00s WALL (     100 calls)
     sum_band:bec :      0.00s CPU      0.00s WALL (     100 calls)
     addusdens    :      0.08s CPU      0.08s WALL (     100 calls)
     addusd:skk   :      0.03s CPU      0.03s WALL (     100 calls)
     addusd:dgemm :      0.02s CPU      0.02s WALL (     100 calls)
     addusd:qvan2 :      0.02s CPU      0.02s WALL (     100 calls)

     Called by *egterg:
     cdiaghg      :      0.01s CPU      0.01s WALL (     392 calls)
     cegterg:over :      0.02s CPU      0.02s WALL (     292 calls)
     cegterg:upda :      0.01s CPU      0.01s WALL (     292 calls)
     cegterg:last :      0.03s CPU      0.03s WALL (     226 calls)
     h_psi        :      1.34s CPU      1.35s WALL (     393 calls)
     s_psi        :      0.01s CPU      0.01s WALL (     393 calls)
     g_psi        :      0.01s CPU      0.01s WALL (     292 calls)

     Called by h_psi:
     h_psi:calbec :      0.01s CPU      0.01s WALL (     393 calls)
     vloc_psi     :      1.32s CPU      1.32s WALL (     393 calls)
     add_vuspsi   :      0.01s CPU      0.01s WALL (     393 calls)

     General routines
     calbec       :      0.01s CPU      0.01s WALL (     493 calls)
     fft          :      1.78s CPU      1.79s WALL (    1111 calls)
     ffts         :      0.16s CPU      0.16s WALL (     100 calls)
     fftw         :      1.42s CPU      1.43s WALL (    1388 calls)
     davcio       :      0.00s CPU      0.00s WALL (      19 calls)


     PWSCF        :      7.63s CPU      7.68s WALL


   This run was terminated on:  22:14:59  28Feb2022            

=------------------------------------------------------------------------------=
   JOB DONE.
=------------------------------------------------------------------------------=
