
     Program PWSCF v.7.0 starts on 28Feb2022 at 22:11:46 

     This program is part of the open-source Quantum ESPRESSO suite
     for quantum simulation of materials; please cite
         "P. Giannozzi et al., J. Phys.:Condens. Matter 21 395502 (2009);
         "P. Giannozzi et al., J. Phys.:Condens. Matter 29 465901 (2017);
         "P. Giannozzi et al., J. Chem. Phys. 152 154105 (2020);
          URL http://www.quantum-espresso.org", 
     in publications or presentations arising from this work. More details at
     http://www.quantum-espresso.org/quote

     Serial version
     1111 MiB available memory on the printing compute node when the environment starts

     Waiting for input...
     Reading input from standard input

     Current dimensions of program PWSCF are:
     Max number of different atomic species (ntypx) = 10
     Max number of k-points (npk) =  40000
     Max angular momentum in pseudopotentials (lmaxx) =  4

    ============================================================
    |  pseudopotential report for atomic species:  1           |
    |        pseudo potential version   7   3   2              |
    ------------------------------------------------------------
    |  oxygen              PBE                  exchange-corr  |
    |  z =   8.    zv( 1) =   6.    exfact =   5.00000         |
    |  ifpcor =  0           atomic energy = -31.58351 Ry      |
    |  index    orbital      occupation    energy              |
    |    1        200           2.00       -1.76               |
    |    2        210           4.00       -0.66               |
    |  rinner =  0.7000  0.7000  0.7000                        |
    |    new generation scheme:                                |
    |    nbeta =  4     kkbeta =  519     rcloc =    1.0000    |
    |    ibeta    l     epsilon   rcut                         |
    |      1       0      -1.76   1.20                         |
    |      2       0      -0.66   1.20                         |
    |      3       1      -1.76   1.20                         |
    |      4       1      -0.66   1.20                         |
    ============================================================

     G-vector sticks info
     --------------------
     sticks:   dense  smooth     PW     G-vecs:    dense   smooth      PW
     Sum        9769    9769   2593               727223   727223   99873

     Using Slab Decomposition



     bravais-lattice index     =            1
     lattice parameter (alat)  =      32.0000  a.u.
     unit-cell volume          =   32768.0000 (a.u.)^3
     number of atoms/cell      =            2
     number of atomic types    =            1
     number of electrons       =        12.00
     number of Kohn-Sham states=            6
     kinetic-energy cutoff     =      30.0000  Ry
     charge density cutoff     =     120.0000  Ry
     scf convergence threshold =      1.0E-08
     mixing beta               =       0.7000
     number of iterations used =            8  plain     mixing
     Exchange-correlation= PBE
                           (   1   4   3   4   0   0   0)

     celldm(1)=  32.000000  celldm(2)=   0.000000  celldm(3)=   0.000000
     celldm(4)=   0.000000  celldm(5)=   0.000000  celldm(6)=   0.000000

     crystal axes: (cart. coord. in units of alat)
               a(1) = (   1.000000   0.000000   0.000000 )  
               a(2) = (   0.000000   1.000000   0.000000 )  
               a(3) = (   0.000000   0.000000   1.000000 )  

     reciprocal axes: (cart. coord. in units 2 pi/alat)
               b(1) = (  1.000000  0.000000  0.000000 )  
               b(2) = (  0.000000  1.000000  0.000000 )  
               b(3) = (  0.000000  0.000000  1.000000 )  


     PseudoPot. # 1 for ox read from file:
     /root/q-e/pseudo/O_US.van
     MD5 check sum: 7e325307d184e51bd80757047dcf04f9
     Pseudo is Ultrasoft, Zval =  6.0
     Generated by Vanderbilt code, v. 7.3.2
     Using radial grid of  737 points,  4 beta functions with: 
                l(1) =   0
                l(2) =   0
                l(3) =   1
                l(4) =   1
     Q(r) pseudized with  8 coefficients,  rinner =    0.700   0.700   0.700


     atomic species   valence    mass     pseudopotential
        O              6.00    15.99900     ox( 1.00)

      8 Sym. Ops. (no inversion) found


                                    s                        frac. trans.

      isym =  1     identity                                     

 cryst.   s( 1) = (     1          0          0      )
                  (     0          1          0      )
                  (     0          0          1      )

 cart.    s( 1) = (  1.0000000  0.0000000  0.0000000 )
                  (  0.0000000  1.0000000  0.0000000 )
                  (  0.0000000  0.0000000  1.0000000 )


      isym =  2     180 deg rotation - cart. axis [1,0,0]        

 cryst.   s( 2) = (     1          0          0      )
                  (     0         -1          0      )
                  (     0          0         -1      )

 cart.    s( 2) = (  1.0000000  0.0000000  0.0000000 )
                  (  0.0000000 -1.0000000  0.0000000 )
                  (  0.0000000  0.0000000 -1.0000000 )


      isym =  3      90 deg rotation - cart. axis [-1,0,0]       

 cryst.   s( 3) = (     1          0          0      )
                  (     0          0         -1      )
                  (     0          1          0      )

 cart.    s( 3) = (  1.0000000  0.0000000  0.0000000 )
                  (  0.0000000  0.0000000  1.0000000 )
                  (  0.0000000 -1.0000000  0.0000000 )


      isym =  4      90 deg rotation - cart. axis [1,0,0]        

 cryst.   s( 4) = (     1          0          0      )
                  (     0          0          1      )
                  (     0         -1          0      )

 cart.    s( 4) = (  1.0000000  0.0000000  0.0000000 )
                  (  0.0000000  0.0000000 -1.0000000 )
                  (  0.0000000  1.0000000  0.0000000 )


      isym =  5     inv. 180 deg rotation - cart. axis [0,0,1]   

 cryst.   s( 5) = (     1          0          0      )
                  (     0          1          0      )
                  (     0          0         -1      )

 cart.    s( 5) = (  1.0000000  0.0000000  0.0000000 )
                  (  0.0000000  1.0000000  0.0000000 )
                  (  0.0000000  0.0000000 -1.0000000 )


      isym =  6     inv. 180 deg rotation - cart. axis [0,1,0]   

 cryst.   s( 6) = (     1          0          0      )
                  (     0         -1          0      )
                  (     0          0          1      )

 cart.    s( 6) = (  1.0000000  0.0000000  0.0000000 )
                  (  0.0000000 -1.0000000  0.0000000 )
                  (  0.0000000  0.0000000  1.0000000 )


      isym =  7     inv. 180 deg rotation - cart. axis [0,1,1]   

 cryst.   s( 7) = (     1          0          0      )
                  (     0          0         -1      )
                  (     0         -1          0      )

 cart.    s( 7) = (  1.0000000  0.0000000  0.0000000 )
                  (  0.0000000  0.0000000 -1.0000000 )
                  (  0.0000000 -1.0000000  0.0000000 )


      isym =  8     inv. 180 deg rotation - cart. axis [0,1,-1]  

 cryst.   s( 8) = (     1          0          0      )
                  (     0          0          1      )
                  (     0          1          0      )

 cart.    s( 8) = (  1.0000000  0.0000000  0.0000000 )
                  (  0.0000000  0.0000000  1.0000000 )
                  (  0.0000000  1.0000000  0.0000000 )


     point group C_4v (4mm) 
     there are  5 classes
     the character table:

       E     2C4   C2    2s_v  2s_d 
A_1    1.00  1.00  1.00  1.00  1.00
A_2    1.00  1.00  1.00 -1.00 -1.00
B_1    1.00 -1.00  1.00  1.00 -1.00
B_2    1.00 -1.00  1.00 -1.00  1.00
E      2.00  0.00 -2.00  0.00  0.00

     the symmetry operations in each class and the name of the first element:

     E        1
          identity                                               
     2C4      3    4
           90 deg rotation - cart. axis [-1,0,0]                 
     C2       2
          180 deg rotation - cart. axis [1,0,0]                  
     2s_v     5    6
          inv. 180 deg rotation - cart. axis [0,0,1]             
     2s_d     7    8
          inv. 180 deg rotation - cart. axis [0,1,1]             

   Cartesian axes

     site n.     atom                  positions (alat units)
         1           O   tau(   1) = (   0.0000000   0.0000000   0.0000000  )
         2           O   tau(   2) = (   0.0707737   0.0000000   0.0000000  )

   Crystallographic axes

     site n.     atom                  positions (cryst. coord.)
         1           O   tau(   1) = (  0.0000000  0.0000000  0.0000000  )
         2           O   tau(   2) = (  0.0707737  0.0000000  0.0000000  )

     number of k points=     1
                       cart. coord. in units 2pi/alat
        k(    1) = (  -0.5000000  -0.5000000  -0.5000000), wk =   2.0000000

                       cryst. coord.
        k(    1) = (  -0.5000000  -0.5000000  -0.5000000), wk =   2.0000000

     Dense  grid:   727223 G-vectors     FFT dimensions: ( 120, 120, 120)

     Dynamical RAM for                 wfc:       8.32 MB

     Dynamical RAM for     wfc (w. buffer):       8.32 MB

     Dynamical RAM for           str. fact:      11.10 MB

     Dynamical RAM for           local pot:       0.00 MB

     Dynamical RAM for          nlocal pot:      22.20 MB

     Dynamical RAM for                qrad:       0.25 MB

     Dynamical RAM for          rho,v,vnew:      72.84 MB

     Dynamical RAM for               rhoin:      24.28 MB

     Dynamical RAM for            rho*nmix:     177.54 MB

     Dynamical RAM for           G-vectors:      47.16 MB

     Dynamical RAM for          h,s,v(r/c):       0.01 MB

     Dynamical RAM for          <psi|beta>:       0.00 MB

     Dynamical RAM for                 psi:      16.65 MB

     Dynamical RAM for                hpsi:      16.65 MB

     Dynamical RAM for                spsi:      16.65 MB

     Dynamical RAM for      wfcinit/wfcrot:      22.20 MB

     Dynamical RAM for           addusdens:     499.34 MB

     Estimated static dynamical RAM per process >     274.26 MB

     Estimated max dynamical RAM per process >     951.15 MB

     Initial potential from superposition of free atoms

     starting charge      12.0000, renormalised to      12.0000

     negative rho (up, down):  1.102E-02 0.000E+00
     Starting wfcs are    8 randomized atomic wfcs

     total cpu time spent up to now is        2.4 secs

     Self-consistent Calculation

     iteration #  1     ecut=    30.00 Ry     beta= 0.70
     Davidson diagonalization with overlap

---- Real-time Memory Report at c_bands before calling an iterative solver
           727 MiB given to the printing process from OS
             0 MiB allocation reported by mallinfo(arena+hblkhd)
           814 MiB available memory on the node where the printing process lives
------------------
     ethr =  1.00E-02,  avg # of iterations =  2.0

     Threshold (ethr) on eigenvalues was too large:
     Diagonalizing with lowered threshold

     Davidson diagonalization with overlap

---- Real-time Memory Report at c_bands before calling an iterative solver
           805 MiB given to the printing process from OS
             0 MiB allocation reported by mallinfo(arena+hblkhd)
           768 MiB available memory on the node where the printing process lives
------------------
     ethr =  4.80E-04,  avg # of iterations =  2.0

     negative rho (up, down):  3.139E-02 0.000E+00

     total cpu time spent up to now is        7.7 secs

     total energy              =     -63.75226638 Ry
     estimated scf accuracy    <       0.05530354 Ry

     iteration #  2     ecut=    30.00 Ry     beta= 0.70
     Davidson diagonalization with overlap

---- Real-time Memory Report at c_bands before calling an iterative solver
           926 MiB given to the printing process from OS
             0 MiB allocation reported by mallinfo(arena+hblkhd)
           596 MiB available memory on the node where the printing process lives
------------------
     ethr =  4.61E-04,  avg # of iterations =  2.0

     negative rho (up, down):  4.081E-02 0.000E+00

     total cpu time spent up to now is       11.1 secs

     total energy              =     -63.76254302 Ry
     estimated scf accuracy    <       0.00160267 Ry

     iteration #  3     ecut=    30.00 Ry     beta= 0.70
     Davidson diagonalization with overlap

---- Real-time Memory Report at c_bands before calling an iterative solver
           948 MiB given to the printing process from OS
             0 MiB allocation reported by mallinfo(arena+hblkhd)
           574 MiB available memory on the node where the printing process lives
------------------
     ethr =  1.34E-05,  avg # of iterations =  3.0

     negative rho (up, down):  4.401E-02 0.000E+00

     total cpu time spent up to now is       14.8 secs

     total energy              =     -63.76294220 Ry
     estimated scf accuracy    <       0.00027227 Ry

     iteration #  4     ecut=    30.00 Ry     beta= 0.70
     Davidson diagonalization with overlap

---- Real-time Memory Report at c_bands before calling an iterative solver
           970 MiB given to the printing process from OS
             0 MiB allocation reported by mallinfo(arena+hblkhd)
           551 MiB available memory on the node where the printing process lives
------------------
     ethr =  2.27E-06,  avg # of iterations =  2.0

     negative rho (up, down):  4.603E-02 0.000E+00

     total cpu time spent up to now is       18.2 secs

     total energy              =     -63.76297380 Ry
     estimated scf accuracy    <       0.00002064 Ry

     iteration #  5     ecut=    30.00 Ry     beta= 0.70
     Davidson diagonalization with overlap

---- Real-time Memory Report at c_bands before calling an iterative solver
           993 MiB given to the printing process from OS
             0 MiB allocation reported by mallinfo(arena+hblkhd)
           529 MiB available memory on the node where the printing process lives
------------------
     ethr =  1.72E-07,  avg # of iterations =  3.0

     negative rho (up, down):  4.602E-02 0.000E+00

     total cpu time spent up to now is       21.7 secs

     total energy              =     -63.76297529 Ry
     estimated scf accuracy    <       0.00000359 Ry

     iteration #  6     ecut=    30.00 Ry     beta= 0.70
     Davidson diagonalization with overlap

---- Real-time Memory Report at c_bands before calling an iterative solver
          1015 MiB given to the printing process from OS
             0 MiB allocation reported by mallinfo(arena+hblkhd)
           695 MiB available memory on the node where the printing process lives
------------------
     ethr =  2.99E-08,  avg # of iterations =  3.0

     negative rho (up, down):  4.603E-02 0.000E+00

     total cpu time spent up to now is       25.3 secs

     total energy              =     -63.76297611 Ry
     estimated scf accuracy    <       0.00000126 Ry

     iteration #  7     ecut=    30.00 Ry     beta= 0.70
     Davidson diagonalization with overlap

---- Real-time Memory Report at c_bands before calling an iterative solver
          1037 MiB given to the printing process from OS
             0 MiB allocation reported by mallinfo(arena+hblkhd)
           673 MiB available memory on the node where the printing process lives
------------------
     ethr =  1.05E-08,  avg # of iterations =  2.0

     negative rho (up, down):  4.603E-02 0.000E+00

     total cpu time spent up to now is       28.6 secs

     total energy              =     -63.76297615 Ry
     estimated scf accuracy    <       0.00000010 Ry

     iteration #  8     ecut=    30.00 Ry     beta= 0.70
     Davidson diagonalization with overlap

---- Real-time Memory Report at c_bands before calling an iterative solver
          1059 MiB given to the printing process from OS
             0 MiB allocation reported by mallinfo(arena+hblkhd)
           651 MiB available memory on the node where the printing process lives
------------------
     ethr =  8.69E-10,  avg # of iterations =  2.0

     negative rho (up, down):  4.603E-02 0.000E+00

     total cpu time spent up to now is       31.9 secs

     End of self-consistent calculation

          k =-0.5000-0.5000-0.5000 ( 90968 PWs)   bands (ev):

   -32.8672 -19.6450 -13.1478 -12.8631 -12.8631  -5.7411

     occupation numbers 
     1.0000   1.0000   1.0000   1.0000   1.0000   1.0000

     highest occupied level (ev):    -5.7411

!    total energy              =     -63.76297618 Ry
     estimated scf accuracy    <          4.5E-10 Ry

     The total energy is the sum of the following terms:
     one-electron contribution =    -141.82140036 Ry
     hartree contribution      =      72.58538686 Ry
     xc contribution           =     -13.57438828 Ry
     ewald contribution        =      19.04742560 Ry

     convergence has been achieved in   8 iterations

     Writing all to output data dir ./.save/

     init_run     :      2.18s CPU      2.33s WALL (       1 calls)
     electrons    :     27.71s CPU     29.62s WALL (       1 calls)

     Called by init_run:
     wfcinit      :      0.64s CPU      0.65s WALL (       1 calls)
     wfcinit:atom :      0.01s CPU      0.01s WALL (       1 calls)
     wfcinit:wfcr :      0.59s CPU      0.59s WALL (       1 calls)
     potinit      :      0.73s CPU      0.76s WALL (       1 calls)
     hinit0       :      0.14s CPU      0.15s WALL (       1 calls)

     Called by electrons:
     c_bands      :     10.51s CPU     10.51s WALL (       9 calls)
     sum_band     :      6.44s CPU      7.28s WALL (       9 calls)
     v_of_rho     :      7.42s CPU      7.58s WALL (       9 calls)
     v_h          :      0.46s CPU      0.46s WALL (       9 calls)
     v_xc         :      6.96s CPU      7.12s WALL (       9 calls)
     newd         :      3.30s CPU      4.25s WALL (       9 calls)
     mix_rho      :      0.87s CPU      0.92s WALL (       9 calls)

     Called by c_bands:
     init_us_2    :      0.25s CPU      0.25s WALL (      19 calls)
     init_us_2:cp :      0.25s CPU      0.25s WALL (      19 calls)
     cegterg      :     10.24s CPU     10.25s WALL (       9 calls)

     Called by sum_band:
     sum_band:wei :      0.00s CPU      0.00s WALL (       9 calls)
     sum_band:loo :      1.80s CPU      1.80s WALL (       9 calls)
     sum_band:buf :      0.00s CPU      0.00s WALL (       9 calls)
     sum_band:ini :      0.12s CPU      0.12s WALL (       9 calls)
     sum_band:cal :      0.11s CPU      0.11s WALL (       9 calls)
     sum_band:bec :      0.00s CPU      0.00s WALL (       9 calls)
     addusdens    :      3.52s CPU      4.36s WALL (       9 calls)
     addusd:skk   :      0.04s CPU      0.04s WALL (       9 calls)
     addusd:dgemm :      1.23s CPU      1.93s WALL (       9 calls)
     addusd:qvan2 :      1.44s CPU      1.44s WALL (       9 calls)

     Called by *egterg:
     cdiaghg      :      0.00s CPU      0.00s WALL (      29 calls)
     cegterg:over :      0.28s CPU      0.28s WALL (      21 calls)
     cegterg:upda :      0.16s CPU      0.16s WALL (      21 calls)
     cegterg:last :      0.33s CPU      0.33s WALL (      19 calls)
     h_psi        :      9.60s CPU      9.60s WALL (      31 calls)
     s_psi        :      0.26s CPU      0.26s WALL (      31 calls)
     g_psi        :      0.03s CPU      0.03s WALL (      21 calls)

     Called by h_psi:
     h_psi:calbec :      0.32s CPU      0.32s WALL (      31 calls)
     vloc_psi     :      8.98s CPU      8.99s WALL (      31 calls)
     add_vuspsi   :      0.27s CPU      0.27s WALL (      31 calls)

     General routines
     calbec       :      0.43s CPU      0.43s WALL (      40 calls)
     fft          :      3.98s CPU      3.98s WALL (      99 calls)
     ffts         :      0.39s CPU      0.39s WALL (       9 calls)
     fftw         :      9.41s CPU      9.41s WALL (     366 calls)


     PWSCF        :     30.00s CPU     32.08s WALL


   This run was terminated on:  22:12:18  28Feb2022            

=------------------------------------------------------------------------------=
   JOB DONE.
=------------------------------------------------------------------------------=
