
     Program PWSCF v.7.0 starts on 28Feb2022 at  3: 7:56 

     This program is part of the open-source Quantum ESPRESSO suite
     for quantum simulation of materials; please cite
         "P. Giannozzi et al., J. Phys.:Condens. Matter 21 395502 (2009);
         "P. Giannozzi et al., J. Phys.:Condens. Matter 29 465901 (2017);
         "P. Giannozzi et al., J. Chem. Phys. 152 154105 (2020);
          URL http://www.quantum-espresso.org", 
     in publications or presentations arising from this work. More details at
     http://www.quantum-espresso.org/quote

     Serial version
     556 MiB available memory on the printing compute node when the environment starts

     Waiting for input...
     Reading input from standard input

     Current dimensions of program PWSCF are:
     Max number of different atomic species (ntypx) = 10
     Max number of k-points (npk) =  40000
     Max angular momentum in pseudopotentials (lmaxx) =  4

     File ./.update deleted, as requested

     File ./.bfgs deleted, as requested

    ============================================================
    |  pseudopotential report for atomic species:  1           |
    |        pseudo potential version   7   3   2              |
    ------------------------------------------------------------
    |  hydrogen            PBE                  exchange-corr  |
    |  z =   1.    zv( 1) =   1.    exfact =   5.00000         |
    |  ifpcor =  0           atomic energy =  -0.91772 Ry      |
    |  index    orbital      occupation    energy              |
    |    1        100           1.00       -0.48               |
    |  rinner =  0.5000                                        |
    |    new generation scheme:                                |
    |    nbeta =  1     kkbeta =  271     rcloc =    0.6000    |
    |    ibeta    l     epsilon   rcut                         |
    |      1       0      -0.48   0.80                         |
    ============================================================

     IMPORTANT: XC functional enforced from input :
     Exchange-correlation= BLYP
                           (   1   3   1   3   0   0   0)
     Any further DFT definition will be discarded
     Please, verify this is what you really want


     G-vector sticks info
     --------------------
     sticks:   dense  smooth     PW     G-vecs:    dense   smooth      PW
     Sum        4281    4281   1185               211657   211657   30551

     Using Slab Decomposition



     bravais-lattice index     =            1
     lattice parameter (alat)  =      30.0000  a.u.
     unit-cell volume          =   27000.0000 (a.u.)^3
     number of atoms/cell      =            2
     number of atomic types    =            1
     number of electrons       =         2.00
     number of Kohn-Sham states=            2
     kinetic-energy cutoff     =      15.0000  Ry
     charge density cutoff     =      60.0000  Ry
     scf convergence threshold =      1.0E-08
     mixing beta               =       0.7000
     number of iterations used =            8  plain     mixing
     energy convergence thresh.=      1.0E-04
     force convergence thresh. =      1.0E-03
     Exchange-correlation= BLYP
                           (   1   3   1   3   0   0   0)
     nstep                     =           50


     celldm(1)=  30.000000  celldm(2)=   0.000000  celldm(3)=   0.000000
     celldm(4)=   0.000000  celldm(5)=   0.000000  celldm(6)=   0.000000

     crystal axes: (cart. coord. in units of alat)
               a(1) = (   1.000000   0.000000   0.000000 )  
               a(2) = (   0.000000   1.000000   0.000000 )  
               a(3) = (   0.000000   0.000000   1.000000 )  

     reciprocal axes: (cart. coord. in units 2 pi/alat)
               b(1) = (  1.000000  0.000000  0.000000 )  
               b(2) = (  0.000000  1.000000  0.000000 )  
               b(3) = (  0.000000  0.000000  1.000000 )  


     PseudoPot. # 1 for hy read from file:
     /root/q-e/pseudo/H_US.van
     MD5 check sum: a9a9bfe98ff56cf4de197d71fc46bb44
     Pseudo is Ultrasoft, Zval =  1.0
     Generated by Vanderbilt code, v. 7.3.2
     Using radial grid of  399 points,  1 beta functions with: 
                l(1) =   0
     Q(r) pseudized with  8 coefficients,  rinner =    0.500

     atomic species   valence    mass     pseudopotential
        H              1.00     1.00784     hy( 1.00)

      8 Sym. Ops. (no inversion) found


                                    s                        frac. trans.

      isym =  1     identity                                     

 cryst.   s( 1) = (     1          0          0      )
                  (     0          1          0      )
                  (     0          0          1      )

 cart.    s( 1) = (  1.0000000  0.0000000  0.0000000 )
                  (  0.0000000  1.0000000  0.0000000 )
                  (  0.0000000  0.0000000  1.0000000 )


      isym =  2     180 deg rotation - cart. axis [1,0,0]        

 cryst.   s( 2) = (     1          0          0      )
                  (     0         -1          0      )
                  (     0          0         -1      )

 cart.    s( 2) = (  1.0000000  0.0000000  0.0000000 )
                  (  0.0000000 -1.0000000  0.0000000 )
                  (  0.0000000  0.0000000 -1.0000000 )


      isym =  3      90 deg rotation - cart. axis [-1,0,0]       

 cryst.   s( 3) = (     1          0          0      )
                  (     0          0         -1      )
                  (     0          1          0      )

 cart.    s( 3) = (  1.0000000  0.0000000  0.0000000 )
                  (  0.0000000  0.0000000  1.0000000 )
                  (  0.0000000 -1.0000000  0.0000000 )


      isym =  4      90 deg rotation - cart. axis [1,0,0]        

 cryst.   s( 4) = (     1          0          0      )
                  (     0          0          1      )
                  (     0         -1          0      )

 cart.    s( 4) = (  1.0000000  0.0000000  0.0000000 )
                  (  0.0000000  0.0000000 -1.0000000 )
                  (  0.0000000  1.0000000  0.0000000 )


      isym =  5     inv. 180 deg rotation - cart. axis [0,0,1]   

 cryst.   s( 5) = (     1          0          0      )
                  (     0          1          0      )
                  (     0          0         -1      )

 cart.    s( 5) = (  1.0000000  0.0000000  0.0000000 )
                  (  0.0000000  1.0000000  0.0000000 )
                  (  0.0000000  0.0000000 -1.0000000 )


      isym =  6     inv. 180 deg rotation - cart. axis [0,1,0]   

 cryst.   s( 6) = (     1          0          0      )
                  (     0         -1          0      )
                  (     0          0          1      )

 cart.    s( 6) = (  1.0000000  0.0000000  0.0000000 )
                  (  0.0000000 -1.0000000  0.0000000 )
                  (  0.0000000  0.0000000  1.0000000 )


      isym =  7     inv. 180 deg rotation - cart. axis [0,1,1]   

 cryst.   s( 7) = (     1          0          0      )
                  (     0          0         -1      )
                  (     0         -1          0      )

 cart.    s( 7) = (  1.0000000  0.0000000  0.0000000 )
                  (  0.0000000  0.0000000 -1.0000000 )
                  (  0.0000000 -1.0000000  0.0000000 )


      isym =  8     inv. 180 deg rotation - cart. axis [0,1,-1]  

 cryst.   s( 8) = (     1          0          0      )
                  (     0          0          1      )
                  (     0          1          0      )

 cart.    s( 8) = (  1.0000000  0.0000000  0.0000000 )
                  (  0.0000000  0.0000000  1.0000000 )
                  (  0.0000000  1.0000000  0.0000000 )


     point group C_4v (4mm) 
     there are  5 classes
     the character table:

       E     2C4   C2    2s_v  2s_d 
A_1    1.00  1.00  1.00  1.00  1.00
A_2    1.00  1.00  1.00 -1.00 -1.00
B_1    1.00 -1.00  1.00  1.00 -1.00
B_2    1.00 -1.00  1.00 -1.00  1.00
E      2.00  0.00 -2.00  0.00  0.00

     the symmetry operations in each class and the name of the first element:

     E        1
          identity                                               
     2C4      3    4
           90 deg rotation - cart. axis [-1,0,0]                 
     C2       2
          180 deg rotation - cart. axis [1,0,0]                  
     2s_v     5    6
          inv. 180 deg rotation - cart. axis [0,0,1]             
     2s_d     7    8
          inv. 180 deg rotation - cart. axis [0,1,1]             

   Cartesian axes

     site n.     atom                  positions (alat units)
         1           H   tau(   1) = (   0.0000000   0.0000000   0.0000000  )
         2           H   tau(   2) = (   0.0529123   0.0000000   0.0000000  )

   Crystallographic axes

     site n.     atom                  positions (cryst. coord.)
         1           H   tau(   1) = (  0.0000000  0.0000000  0.0000000  )
         2           H   tau(   2) = (  0.0529123  0.0000000  0.0000000  )

     number of k points=     1
                       cart. coord. in units 2pi/alat
        k(    1) = (  -0.5000000  -0.5000000  -0.5000000), wk =   2.0000000

                       cryst. coord.
        k(    1) = (  -0.5000000  -0.5000000  -0.5000000), wk =   2.0000000

     Dense  grid:   211657 G-vectors     FFT dimensions: (  75,  75,  75)

     Dynamical RAM for                 wfc:       0.81 MB

     Dynamical RAM for     wfc (w. buffer):       0.81 MB

     Dynamical RAM for           str. fact:       3.23 MB

     Dynamical RAM for           local pot:       0.00 MB

     Dynamical RAM for          nlocal pot:       0.81 MB

     Dynamical RAM for                qrad:       0.01 MB

     Dynamical RAM for          rho,v,vnew:      19.34 MB

     Dynamical RAM for               rhoin:       6.45 MB

     Dynamical RAM for            rho*nmix:      51.67 MB

     Dynamical RAM for           G-vectors:      13.73 MB

     Dynamical RAM for          h,s,v(r/c):       0.00 MB

     Dynamical RAM for          <psi|beta>:       0.00 MB

     Dynamical RAM for                 psi:       1.62 MB

     Dynamical RAM for                hpsi:       1.62 MB

     Dynamical RAM for                spsi:       1.62 MB

     Dynamical RAM for      wfcinit/wfcrot:       1.62 MB

     Dynamical RAM for           addusdens:      19.38 MB

     Dynamical RAM for          addusforce:      27.45 MB

     Estimated static dynamical RAM per process >      66.92 MB

     Estimated max dynamical RAM per process >     146.05 MB

     Initial potential from superposition of free atoms

     starting charge       2.0000, renormalised to       2.0000

     negative rho (up, down):  1.008E-01 0.000E+00
     Starting wfcs are    2 randomized atomic wfcs

     total cpu time spent up to now is        0.4 secs

     Self-consistent Calculation

     iteration #  1     ecut=    15.00 Ry     beta= 0.70
     Davidson diagonalization with overlap

---- Real-time Memory Report at c_bands before calling an iterative solver
           123 MiB given to the printing process from OS
             0 MiB allocation reported by mallinfo(arena+hblkhd)
           476 MiB available memory on the node where the printing process lives
------------------
     ethr =  1.00E-02,  avg # of iterations =  3.0

     negative rho (up, down):  1.529E-01 0.000E+00

     total cpu time spent up to now is        0.8 secs

     total energy              =      -2.29356846 Ry
     estimated scf accuracy    <       0.09410419 Ry

     iteration #  2     ecut=    15.00 Ry     beta= 0.70
     Davidson diagonalization with overlap

---- Real-time Memory Report at c_bands before calling an iterative solver
           152 MiB given to the printing process from OS
             0 MiB allocation reported by mallinfo(arena+hblkhd)
           418 MiB available memory on the node where the printing process lives
------------------
     ethr =  4.71E-03,  avg # of iterations =  2.0

     negative rho (up, down):  1.645E-01 0.000E+00

     total cpu time spent up to now is        1.2 secs

     total energy              =      -2.29342242 Ry
     estimated scf accuracy    <       0.00124798 Ry

     iteration #  3     ecut=    15.00 Ry     beta= 0.70
     Davidson diagonalization with overlap

---- Real-time Memory Report at c_bands before calling an iterative solver
           158 MiB given to the printing process from OS
             0 MiB allocation reported by mallinfo(arena+hblkhd)
           411 MiB available memory on the node where the printing process lives
------------------
     ethr =  6.24E-05,  avg # of iterations = 12.0

     negative rho (up, down):  1.644E-01 0.000E+00

     total cpu time spent up to now is        1.7 secs

     total energy              =      -2.29364965 Ry
     estimated scf accuracy    <       0.00001582 Ry

     iteration #  4     ecut=    15.00 Ry     beta= 0.70
     Davidson diagonalization with overlap

---- Real-time Memory Report at c_bands before calling an iterative solver
           165 MiB given to the printing process from OS
             0 MiB allocation reported by mallinfo(arena+hblkhd)
           405 MiB available memory on the node where the printing process lives
------------------
     ethr =  7.91E-07,  avg # of iterations =  5.0

     negative rho (up, down):  1.647E-01 0.000E+00

     total cpu time spent up to now is        2.1 secs

     total energy              =      -2.29352182 Ry
     estimated scf accuracy    <       0.00000064 Ry

     iteration #  5     ecut=    15.00 Ry     beta= 0.70
     Davidson diagonalization with overlap

---- Real-time Memory Report at c_bands before calling an iterative solver
           171 MiB given to the printing process from OS
             0 MiB allocation reported by mallinfo(arena+hblkhd)
           398 MiB available memory on the node where the printing process lives
------------------
     ethr =  3.22E-08,  avg # of iterations =  3.0

     negative rho (up, down):  1.647E-01 0.000E+00

     total cpu time spent up to now is        2.5 secs

     total energy              =      -2.29348339 Ry
     estimated scf accuracy    <       0.00000010 Ry

     iteration #  6     ecut=    15.00 Ry     beta= 0.70
     Davidson diagonalization with overlap

---- Real-time Memory Report at c_bands before calling an iterative solver
           178 MiB given to the printing process from OS
             0 MiB allocation reported by mallinfo(arena+hblkhd)
           392 MiB available memory on the node where the printing process lives
------------------
     ethr =  4.79E-09,  avg # of iterations =  4.0

     negative rho (up, down):  1.647E-01 0.000E+00

     total cpu time spent up to now is        2.9 secs

     total energy              =      -2.29350856 Ry
     estimated scf accuracy    <       0.00000007 Ry

     iteration #  7     ecut=    15.00 Ry     beta= 0.70
     Davidson diagonalization with overlap

---- Real-time Memory Report at c_bands before calling an iterative solver
           184 MiB given to the printing process from OS
             0 MiB allocation reported by mallinfo(arena+hblkhd)
           385 MiB available memory on the node where the printing process lives
------------------
     ethr =  3.53E-09,  avg # of iterations =  4.0

     negative rho (up, down):  1.648E-01 0.000E+00

     total cpu time spent up to now is        3.3 secs

     total energy              =      -2.29345726 Ry
     estimated scf accuracy    <       0.00000006 Ry

     iteration #  8     ecut=    15.00 Ry     beta= 0.70
     Davidson diagonalization with overlap

---- Real-time Memory Report at c_bands before calling an iterative solver
           191 MiB given to the printing process from OS
             0 MiB allocation reported by mallinfo(arena+hblkhd)
           379 MiB available memory on the node where the printing process lives
------------------
     ethr =  3.23E-09,  avg # of iterations =  4.0

     negative rho (up, down):  1.648E-01 0.000E+00

     total cpu time spent up to now is        3.7 secs

     total energy              =      -2.29348295 Ry
     estimated scf accuracy    <       0.00000015 Ry

     iteration #  9     ecut=    15.00 Ry     beta= 0.70
     Davidson diagonalization with overlap

---- Real-time Memory Report at c_bands before calling an iterative solver
           197 MiB given to the printing process from OS
             0 MiB allocation reported by mallinfo(arena+hblkhd)
           373 MiB available memory on the node where the printing process lives
------------------
     ethr =  3.23E-09,  avg # of iterations =  3.0

     negative rho (up, down):  1.648E-01 0.000E+00

     total cpu time spent up to now is        4.1 secs

     total energy              =      -2.29347759 Ry
     estimated scf accuracy    <       0.00000005 Ry

     iteration # 10     ecut=    15.00 Ry     beta= 0.70
     Davidson diagonalization with overlap

---- Real-time Memory Report at c_bands before calling an iterative solver
           203 MiB given to the printing process from OS
             0 MiB allocation reported by mallinfo(arena+hblkhd)
           367 MiB available memory on the node where the printing process lives
------------------
     ethr =  2.45E-09,  avg # of iterations =  3.0

     negative rho (up, down):  1.648E-01 0.000E+00

     total cpu time spent up to now is        4.5 secs

     total energy              =      -2.29346753 Ry
     estimated scf accuracy    <       0.00000008 Ry

     iteration # 11     ecut=    15.00 Ry     beta= 0.70
     Davidson diagonalization with overlap

---- Real-time Memory Report at c_bands before calling an iterative solver
           203 MiB given to the printing process from OS
             0 MiB allocation reported by mallinfo(arena+hblkhd)
           367 MiB available memory on the node where the printing process lives
------------------
     ethr =  2.45E-09,  avg # of iterations =  3.0

     negative rho (up, down):  1.647E-01 0.000E+00

     total cpu time spent up to now is        4.9 secs

     total energy              =      -2.29348613 Ry
     estimated scf accuracy    <       0.00000015 Ry

     iteration # 12     ecut=    15.00 Ry     beta= 0.70
     Davidson diagonalization with overlap

---- Real-time Memory Report at c_bands before calling an iterative solver
           203 MiB given to the printing process from OS
             0 MiB allocation reported by mallinfo(arena+hblkhd)
           367 MiB available memory on the node where the printing process lives
------------------
     ethr =  2.45E-09,  avg # of iterations =  4.0

     negative rho (up, down):  1.647E-01 0.000E+00

     total cpu time spent up to now is        5.3 secs

     total energy              =      -2.29347936 Ry
     estimated scf accuracy    <       0.00000007 Ry

     iteration # 13     ecut=    15.00 Ry     beta= 0.70
     Davidson diagonalization with overlap

---- Real-time Memory Report at c_bands before calling an iterative solver
           203 MiB given to the printing process from OS
             0 MiB allocation reported by mallinfo(arena+hblkhd)
           367 MiB available memory on the node where the printing process lives
------------------
     ethr =  2.45E-09,  avg # of iterations =  2.0

     negative rho (up, down):  1.647E-01 0.000E+00

     total cpu time spent up to now is        5.7 secs

     total energy              =      -2.29348700 Ry
     estimated scf accuracy    <       0.00000008 Ry

     iteration # 14     ecut=    15.00 Ry     beta= 0.70
     Davidson diagonalization with overlap

---- Real-time Memory Report at c_bands before calling an iterative solver
           203 MiB given to the printing process from OS
             0 MiB allocation reported by mallinfo(arena+hblkhd)
           367 MiB available memory on the node where the printing process lives
------------------
     ethr =  2.45E-09,  avg # of iterations =  2.0

     negative rho (up, down):  1.647E-01 0.000E+00

     total cpu time spent up to now is        6.1 secs

     total energy              =      -2.29348218 Ry
     estimated scf accuracy    <       0.00000007 Ry

     iteration # 15     ecut=    15.00 Ry     beta= 0.70
     Davidson diagonalization with overlap

---- Real-time Memory Report at c_bands before calling an iterative solver
           203 MiB given to the printing process from OS
             0 MiB allocation reported by mallinfo(arena+hblkhd)
           367 MiB available memory on the node where the printing process lives
------------------
     ethr =  2.45E-09,  avg # of iterations =  3.0

     negative rho (up, down):  1.648E-01 0.000E+00

     total cpu time spent up to now is        6.5 secs

     total energy              =      -2.29346518 Ry
     estimated scf accuracy    <       0.00000008 Ry

     iteration # 16     ecut=    15.00 Ry     beta= 0.70
     Davidson diagonalization with overlap

---- Real-time Memory Report at c_bands before calling an iterative solver
           203 MiB given to the printing process from OS
             0 MiB allocation reported by mallinfo(arena+hblkhd)
           367 MiB available memory on the node where the printing process lives
------------------
     ethr =  2.45E-09,  avg # of iterations =  3.0

     negative rho (up, down):  1.648E-01 0.000E+00

     total cpu time spent up to now is        6.9 secs

     total energy              =      -2.29346036 Ry
     estimated scf accuracy    <       0.00000008 Ry

     iteration # 17     ecut=    15.00 Ry     beta= 0.70
     Davidson diagonalization with overlap

---- Real-time Memory Report at c_bands before calling an iterative solver
           203 MiB given to the printing process from OS
             0 MiB allocation reported by mallinfo(arena+hblkhd)
           367 MiB available memory on the node where the printing process lives
------------------
     ethr =  2.45E-09,  avg # of iterations =  3.0

     negative rho (up, down):  1.649E-01 0.000E+00

     total cpu time spent up to now is        7.3 secs

     total energy              =      -2.29344098 Ry
     estimated scf accuracy    <       0.00000013 Ry

     iteration # 18     ecut=    15.00 Ry     beta= 0.70
     Davidson diagonalization with overlap

---- Real-time Memory Report at c_bands before calling an iterative solver
           203 MiB given to the printing process from OS
             0 MiB allocation reported by mallinfo(arena+hblkhd)
           367 MiB available memory on the node where the printing process lives
------------------
     ethr =  2.45E-09,  avg # of iterations =  3.0

     negative rho (up, down):  1.646E-01 0.000E+00

     total cpu time spent up to now is        7.7 secs

     total energy              =      -2.29361876 Ry
     estimated scf accuracy    <       0.00000023 Ry

     iteration # 19     ecut=    15.00 Ry     beta= 0.70
     Davidson diagonalization with overlap

---- Real-time Memory Report at c_bands before calling an iterative solver
           203 MiB given to the printing process from OS
             0 MiB allocation reported by mallinfo(arena+hblkhd)
           367 MiB available memory on the node where the printing process lives
------------------
     ethr =  2.45E-09,  avg # of iterations =  3.0

     negative rho (up, down):  1.647E-01 0.000E+00

     total cpu time spent up to now is        8.1 secs

     total energy              =      -2.29357308 Ry
     estimated scf accuracy    <       0.00000020 Ry

     iteration # 20     ecut=    15.00 Ry     beta= 0.70
     Davidson diagonalization with overlap

---- Real-time Memory Report at c_bands before calling an iterative solver
           203 MiB given to the printing process from OS
             0 MiB allocation reported by mallinfo(arena+hblkhd)
           367 MiB available memory on the node where the printing process lives
------------------
     ethr =  2.45E-09,  avg # of iterations =  3.0

     negative rho (up, down):  1.646E-01 0.000E+00

     total cpu time spent up to now is        8.5 secs

     total energy              =      -2.29358887 Ry
     estimated scf accuracy    <       0.00000020 Ry

     iteration # 21     ecut=    15.00 Ry     beta= 0.70
     Davidson diagonalization with overlap

---- Real-time Memory Report at c_bands before calling an iterative solver
           203 MiB given to the printing process from OS
             0 MiB allocation reported by mallinfo(arena+hblkhd)
           367 MiB available memory on the node where the printing process lives
------------------
     ethr =  2.45E-09,  avg # of iterations =  4.0

     negative rho (up, down):  1.647E-01 0.000E+00

     total cpu time spent up to now is        8.9 secs

     total energy              =      -2.29357347 Ry
     estimated scf accuracy    <       0.00000004 Ry

     iteration # 22     ecut=    15.00 Ry     beta= 0.70
     Davidson diagonalization with overlap

---- Real-time Memory Report at c_bands before calling an iterative solver
           203 MiB given to the printing process from OS
             0 MiB allocation reported by mallinfo(arena+hblkhd)
           367 MiB available memory on the node where the printing process lives
------------------
     ethr =  2.15E-09,  avg # of iterations =  4.0

     negative rho (up, down):  1.647E-01 0.000E+00

     total cpu time spent up to now is        9.3 secs

     total energy              =      -2.29353600 Ry
     estimated scf accuracy    <       0.00000013 Ry

     iteration # 23     ecut=    15.00 Ry     beta= 0.70
     Davidson diagonalization with overlap

---- Real-time Memory Report at c_bands before calling an iterative solver
           203 MiB given to the printing process from OS
             0 MiB allocation reported by mallinfo(arena+hblkhd)
           367 MiB available memory on the node where the printing process lives
------------------
     ethr =  2.15E-09,  avg # of iterations =  4.0

     negative rho (up, down):  1.647E-01 0.000E+00

     total cpu time spent up to now is        9.7 secs

     total energy              =      -2.29356352 Ry
     estimated scf accuracy    <       0.00000005 Ry

     iteration # 24     ecut=    15.00 Ry     beta= 0.70
     Davidson diagonalization with overlap

---- Real-time Memory Report at c_bands before calling an iterative solver
           203 MiB given to the printing process from OS
             0 MiB allocation reported by mallinfo(arena+hblkhd)
           367 MiB available memory on the node where the printing process lives
------------------
     ethr =  2.15E-09,  avg # of iterations =  4.0

     negative rho (up, down):  1.647E-01 0.000E+00

     total cpu time spent up to now is       10.1 secs

     total energy              =      -2.29352959 Ry
     estimated scf accuracy    <       0.00000003 Ry

     iteration # 25     ecut=    15.00 Ry     beta= 0.70
     Davidson diagonalization with overlap

---- Real-time Memory Report at c_bands before calling an iterative solver
           203 MiB given to the printing process from OS
             0 MiB allocation reported by mallinfo(arena+hblkhd)
           367 MiB available memory on the node where the printing process lives
------------------
     ethr =  1.34E-09,  avg # of iterations =  4.0

     negative rho (up, down):  1.647E-01 0.000E+00

     total cpu time spent up to now is       10.5 secs

     total energy              =      -2.29349822 Ry
     estimated scf accuracy    <       0.00000006 Ry

     iteration # 26     ecut=    15.00 Ry     beta= 0.70
     Davidson diagonalization with overlap

---- Real-time Memory Report at c_bands before calling an iterative solver
           203 MiB given to the printing process from OS
             0 MiB allocation reported by mallinfo(arena+hblkhd)
           367 MiB available memory on the node where the printing process lives
------------------
     ethr =  1.34E-09,  avg # of iterations =  4.0

     negative rho (up, down):  1.647E-01 0.000E+00

     total cpu time spent up to now is       10.9 secs

     total energy              =      -2.29351029 Ry
     estimated scf accuracy    <       0.00000002 Ry

     iteration # 27     ecut=    15.00 Ry     beta= 0.70
     Davidson diagonalization with overlap

---- Real-time Memory Report at c_bands before calling an iterative solver
           203 MiB given to the printing process from OS
             0 MiB allocation reported by mallinfo(arena+hblkhd)
           367 MiB available memory on the node where the printing process lives
------------------
     ethr =  9.15E-10,  avg # of iterations =  3.0

     negative rho (up, down):  1.647E-01 0.000E+00

     total cpu time spent up to now is       11.3 secs

     total energy              =      -2.29353737 Ry
     estimated scf accuracy    <       0.00000003 Ry

     iteration # 28     ecut=    15.00 Ry     beta= 0.70
     Davidson diagonalization with overlap

---- Real-time Memory Report at c_bands before calling an iterative solver
           203 MiB given to the printing process from OS
             0 MiB allocation reported by mallinfo(arena+hblkhd)
           367 MiB available memory on the node where the printing process lives
------------------
     ethr =  9.15E-10,  avg # of iterations =  4.0

     negative rho (up, down):  1.647E-01 0.000E+00

     total cpu time spent up to now is       11.7 secs

     total energy              =      -2.29353694 Ry
     estimated scf accuracy    <       0.00000002 Ry

     iteration # 29     ecut=    15.00 Ry     beta= 0.70
     Davidson diagonalization with overlap

---- Real-time Memory Report at c_bands before calling an iterative solver
           203 MiB given to the printing process from OS
             0 MiB allocation reported by mallinfo(arena+hblkhd)
           367 MiB available memory on the node where the printing process lives
------------------
     ethr =  8.36E-10,  avg # of iterations =  3.0

     negative rho (up, down):  1.647E-01 0.000E+00

     total cpu time spent up to now is       12.1 secs

     total energy              =      -2.29354088 Ry
     estimated scf accuracy    <       0.00000008 Ry

     iteration # 30     ecut=    15.00 Ry     beta= 0.70
     Davidson diagonalization with overlap

---- Real-time Memory Report at c_bands before calling an iterative solver
           203 MiB given to the printing process from OS
             0 MiB allocation reported by mallinfo(arena+hblkhd)
           367 MiB available memory on the node where the printing process lives
------------------
     ethr =  8.36E-10,  avg # of iterations =  2.0

     negative rho (up, down):  1.647E-01 0.000E+00

     total cpu time spent up to now is       12.5 secs

     total energy              =      -2.29354739 Ry
     estimated scf accuracy    <       0.00000007 Ry

     iteration # 31     ecut=    15.00 Ry     beta= 0.70
     Davidson diagonalization with overlap

---- Real-time Memory Report at c_bands before calling an iterative solver
           203 MiB given to the printing process from OS
             0 MiB allocation reported by mallinfo(arena+hblkhd)
           367 MiB available memory on the node where the printing process lives
------------------
     ethr =  8.36E-10,  avg # of iterations =  4.0

     negative rho (up, down):  1.647E-01 0.000E+00

     total cpu time spent up to now is       12.9 secs

     total energy              =      -2.29354758 Ry
     estimated scf accuracy    <       0.00000002 Ry

     iteration # 32     ecut=    15.00 Ry     beta= 0.70
     Davidson diagonalization with overlap

---- Real-time Memory Report at c_bands before calling an iterative solver
           203 MiB given to the printing process from OS
             0 MiB allocation reported by mallinfo(arena+hblkhd)
           367 MiB available memory on the node where the printing process lives
------------------
     ethr =  8.36E-10,  avg # of iterations =  2.0

     negative rho (up, down):  1.647E-01 0.000E+00

     total cpu time spent up to now is       13.3 secs

     total energy              =      -2.29354466 Ry
     estimated scf accuracy    <       0.00000002 Ry

     iteration # 33     ecut=    15.00 Ry     beta= 0.70
     Davidson diagonalization with overlap

---- Real-time Memory Report at c_bands before calling an iterative solver
           203 MiB given to the printing process from OS
             0 MiB allocation reported by mallinfo(arena+hblkhd)
           367 MiB available memory on the node where the printing process lives
------------------
     ethr =  8.36E-10,  avg # of iterations =  2.0

     negative rho (up, down):  1.647E-01 0.000E+00

     total cpu time spent up to now is       13.7 secs

     total energy              =      -2.29350309 Ry
     estimated scf accuracy    <       0.00000002 Ry

     iteration # 34     ecut=    15.00 Ry     beta= 0.70
     Davidson diagonalization with overlap

---- Real-time Memory Report at c_bands before calling an iterative solver
           203 MiB given to the printing process from OS
             0 MiB allocation reported by mallinfo(arena+hblkhd)
           367 MiB available memory on the node where the printing process lives
------------------
     ethr =  8.36E-10,  avg # of iterations =  4.0

     negative rho (up, down):  1.647E-01 0.000E+00

     total cpu time spent up to now is       14.1 secs

     total energy              =      -2.29352112 Ry
     estimated scf accuracy    <       0.00000001 Ry

     iteration # 35     ecut=    15.00 Ry     beta= 0.70
     Davidson diagonalization with overlap

---- Real-time Memory Report at c_bands before calling an iterative solver
           203 MiB given to the printing process from OS
             0 MiB allocation reported by mallinfo(arena+hblkhd)
           367 MiB available memory on the node where the printing process lives
------------------
     ethr =  5.53E-10,  avg # of iterations =  4.0

     negative rho (up, down):  1.647E-01 0.000E+00

     total cpu time spent up to now is       14.5 secs

     total energy              =      -2.29350279 Ry
     estimated scf accuracy    <       0.00000005 Ry

     iteration # 36     ecut=    15.00 Ry     beta= 0.70
     Davidson diagonalization with overlap

---- Real-time Memory Report at c_bands before calling an iterative solver
           203 MiB given to the printing process from OS
             0 MiB allocation reported by mallinfo(arena+hblkhd)
           367 MiB available memory on the node where the printing process lives
------------------
     ethr =  5.53E-10,  avg # of iterations =  4.0

     negative rho (up, down):  1.647E-01 0.000E+00

     total cpu time spent up to now is       14.9 secs

     total energy              =      -2.29351693 Ry
     estimated scf accuracy    <       0.00000001 Ry

     iteration # 37     ecut=    15.00 Ry     beta= 0.70
     Davidson diagonalization with overlap

---- Real-time Memory Report at c_bands before calling an iterative solver
           203 MiB given to the printing process from OS
             0 MiB allocation reported by mallinfo(arena+hblkhd)
           367 MiB available memory on the node where the printing process lives
------------------
     ethr =  5.53E-10,  avg # of iterations =  3.0

     negative rho (up, down):  1.647E-01 0.000E+00

     total cpu time spent up to now is       15.3 secs

     total energy              =      -2.29352614 Ry
     estimated scf accuracy    <       0.00000003 Ry

     iteration # 38     ecut=    15.00 Ry     beta= 0.70
     Davidson diagonalization with overlap

---- Real-time Memory Report at c_bands before calling an iterative solver
           203 MiB given to the printing process from OS
             0 MiB allocation reported by mallinfo(arena+hblkhd)
           367 MiB available memory on the node where the printing process lives
------------------
     ethr =  5.53E-10,  avg # of iterations =  3.0

     negative rho (up, down):  1.647E-01 0.000E+00

     total cpu time spent up to now is       15.7 secs

     total energy              =      -2.29350930 Ry
     estimated scf accuracy    <       0.00000002 Ry

     iteration # 39     ecut=    15.00 Ry     beta= 0.70
     Davidson diagonalization with overlap

---- Real-time Memory Report at c_bands before calling an iterative solver
           203 MiB given to the printing process from OS
             0 MiB allocation reported by mallinfo(arena+hblkhd)
           367 MiB available memory on the node where the printing process lives
------------------
     ethr =  5.53E-10,  avg # of iterations =  3.0

     negative rho (up, down):  1.648E-01 0.000E+00

     total cpu time spent up to now is       16.1 secs

     total energy              =      -2.29348566 Ry
     estimated scf accuracy    <       0.00000001 Ry

     iteration # 40     ecut=    15.00 Ry     beta= 0.70
     Davidson diagonalization with overlap

---- Real-time Memory Report at c_bands before calling an iterative solver
           203 MiB given to the printing process from OS
             0 MiB allocation reported by mallinfo(arena+hblkhd)
           367 MiB available memory on the node where the printing process lives
------------------
     ethr =  5.53E-10,  avg # of iterations =  4.0

     negative rho (up, down):  1.647E-01 0.000E+00

     total cpu time spent up to now is       16.5 secs

     total energy              =      -2.29349750 Ry
     estimated scf accuracy    <       0.00000003 Ry

     iteration # 41     ecut=    15.00 Ry     beta= 0.70
     Davidson diagonalization with overlap

---- Real-time Memory Report at c_bands before calling an iterative solver
           203 MiB given to the printing process from OS
             0 MiB allocation reported by mallinfo(arena+hblkhd)
           367 MiB available memory on the node where the printing process lives
------------------
     ethr =  5.53E-10,  avg # of iterations =  4.0

     negative rho (up, down):  1.647E-01 0.000E+00

     total cpu time spent up to now is       16.9 secs

     End of self-consistent calculation

          k =-0.5000-0.5000-0.5000 ( 26344 PWs)   bands (ev):

   -10.2209  -1.5403

     occupation numbers 
     1.0000   0.0000

     highest occupied, lowest unoccupied level (ev):   -10.2209   -1.5403

!    total energy              =      -2.29347729 Ry
     estimated scf accuracy    <          3.3E-09 Ry

     The total energy is the sum of the following terms:
     one-electron contribution =      -3.98232857 Ry
     hartree contribution      =       2.14374715 Ry
     xc contribution           =      -1.33692781 Ry
     ewald contribution        =       0.88203193 Ry

     convergence has been achieved in  41 iterations

     Forces acting on atoms (cartesian axes, Ry/au):

     atom    1 type  1   force =     0.10253644    0.00000000    0.00000000
     atom    2 type  1   force =    -0.10253644    0.00000000    0.00000000
     The non-local contrib.  to forces
     atom    1 type  1   force =     0.07922928    0.00000000    0.00000000
     atom    2 type  1   force =    -0.07839169    0.00000000    0.00000000
     The ionic contribution  to forces
     atom    1 type  1   force =    -0.79323506   -0.00000000   -0.00000000
     atom    2 type  1   force =     0.79323506   -0.00000000   -0.00000000
     The local contribution  to forces
     atom    1 type  1   force =     0.81691172    0.00000000    0.00000000
     atom    2 type  1   force =    -0.81668667    0.00000000    0.00000000
     The core correction contribution to forces
     atom    1 type  1   force =     0.00000000    0.00000000    0.00000000
     atom    2 type  1   force =     0.00000000    0.00000000    0.00000000
     The Hubbard contrib.    to forces
     atom    1 type  1   force =     0.00000000    0.00000000    0.00000000
     atom    2 type  1   force =     0.00000000    0.00000000    0.00000000
     The SCF correction term to forces
     atom    1 type  1   force =     0.00028123    0.00000000   -0.00000000
     atom    2 type  1   force =    -0.00004242    0.00000000   -0.00000000

     Total force =     0.145008     Total SCF correction =     0.000284

     BFGS Geometry Optimization
     Energy error            =      0.0E+00 Ry
     Gradient error          =      1.0E-01 Ry/Bohr

     number of scf cycles    =   1
     number of bfgs steps    =   0

     energy             new  =      -2.2934772949 Ry

     new trust radius        =       0.1025364421 bohr
     new conv_thr            =       0.0000000100 Ry


ATOMIC_POSITIONS (angstrom)
H             0.0542599485        0.0000000000        0.0000000000
H             0.7857400515        0.0000000000        0.0000000000



     Writing config-only to output data dir ./.save/
     NEW-OLD atomic charge density approx. for the potential

     negative rho (up, down):  1.564E-01 0.000E+00

     total cpu time spent up to now is       17.3 secs

     Self-consistent Calculation

     iteration #  1     ecut=    15.00 Ry     beta= 0.70
     Davidson diagonalization with overlap

---- Real-time Memory Report at c_bands before calling an iterative solver
           207 MiB given to the printing process from OS
             0 MiB allocation reported by mallinfo(arena+hblkhd)
           472 MiB available memory on the node where the printing process lives
------------------
     ethr =  1.00E-06,  avg # of iterations =  7.0

     negative rho (up, down):  1.740E-01 0.000E+00

     total cpu time spent up to now is       17.8 secs

     total energy              =      -2.30094430 Ry
     estimated scf accuracy    <       0.00278964 Ry

     iteration #  2     ecut=    15.00 Ry     beta= 0.70
     Davidson diagonalization with overlap

---- Real-time Memory Report at c_bands before calling an iterative solver
           207 MiB given to the printing process from OS
             0 MiB allocation reported by mallinfo(arena+hblkhd)
           415 MiB available memory on the node where the printing process lives
------------------
     ethr =  1.39E-04,  avg # of iterations =  1.0

     negative rho (up, down):  1.785E-01 0.000E+00

     total cpu time spent up to now is       18.1 secs

     total energy              =      -2.29871347 Ry
     estimated scf accuracy    <       0.00003104 Ry

     iteration #  3     ecut=    15.00 Ry     beta= 0.70
     Davidson diagonalization with overlap

---- Real-time Memory Report at c_bands before calling an iterative solver
           207 MiB given to the printing process from OS
             0 MiB allocation reported by mallinfo(arena+hblkhd)
           409 MiB available memory on the node where the printing process lives
------------------
     ethr =  1.55E-06,  avg # of iterations =  5.0

     negative rho (up, down):  1.796E-01 0.000E+00

     total cpu time spent up to now is       18.5 secs

     total energy              =      -2.29813796 Ry
     estimated scf accuracy    <       0.00000120 Ry

     iteration #  4     ecut=    15.00 Ry     beta= 0.70
     Davidson diagonalization with overlap

---- Real-time Memory Report at c_bands before calling an iterative solver
           207 MiB given to the printing process from OS
             0 MiB allocation reported by mallinfo(arena+hblkhd)
           402 MiB available memory on the node where the printing process lives
------------------
     ethr =  5.99E-08,  avg # of iterations =  2.0

     negative rho (up, down):  1.796E-01 0.000E+00

     total cpu time spent up to now is       18.9 secs

     total energy              =      -2.29814958 Ry
     estimated scf accuracy    <       0.00000013 Ry

     iteration #  5     ecut=    15.00 Ry     beta= 0.70
     Davidson diagonalization with overlap

---- Real-time Memory Report at c_bands before calling an iterative solver
           207 MiB given to the printing process from OS
             0 MiB allocation reported by mallinfo(arena+hblkhd)
           396 MiB available memory on the node where the printing process lives
------------------
     ethr =  6.34E-09,  avg # of iterations =  2.0

     negative rho (up, down):  1.795E-01 0.000E+00

     total cpu time spent up to now is       19.2 secs

     total energy              =      -2.29819503 Ry
     estimated scf accuracy    <       0.00000005 Ry

     iteration #  6     ecut=    15.00 Ry     beta= 0.70
     Davidson diagonalization with overlap

---- Real-time Memory Report at c_bands before calling an iterative solver
           207 MiB given to the printing process from OS
             0 MiB allocation reported by mallinfo(arena+hblkhd)
           389 MiB available memory on the node where the printing process lives
------------------
     ethr =  2.26E-09,  avg # of iterations =  4.0

     negative rho (up, down):  1.795E-01 0.000E+00

     total cpu time spent up to now is       19.7 secs

     total energy              =      -2.29819096 Ry
     estimated scf accuracy    <       0.00000012 Ry

     iteration #  7     ecut=    15.00 Ry     beta= 0.70
     Davidson diagonalization with overlap

---- Real-time Memory Report at c_bands before calling an iterative solver
           207 MiB given to the printing process from OS
             0 MiB allocation reported by mallinfo(arena+hblkhd)
           383 MiB available memory on the node where the printing process lives
------------------
     ethr =  2.26E-09,  avg # of iterations =  2.0

     negative rho (up, down):  1.795E-01 0.000E+00

     total cpu time spent up to now is       20.0 secs

     total energy              =      -2.29822568 Ry
     estimated scf accuracy    <       0.00000005 Ry

     iteration #  8     ecut=    15.00 Ry     beta= 0.70
     Davidson diagonalization with overlap

---- Real-time Memory Report at c_bands before calling an iterative solver
           207 MiB given to the printing process from OS
             0 MiB allocation reported by mallinfo(arena+hblkhd)
           376 MiB available memory on the node where the printing process lives
------------------
     ethr =  2.26E-09,  avg # of iterations =  3.0

     negative rho (up, down):  1.795E-01 0.000E+00

     total cpu time spent up to now is       20.4 secs

     total energy              =      -2.29824425 Ry
     estimated scf accuracy    <       0.00000010 Ry

     iteration #  9     ecut=    15.00 Ry     beta= 0.70
     Davidson diagonalization with overlap

---- Real-time Memory Report at c_bands before calling an iterative solver
           207 MiB given to the printing process from OS
             0 MiB allocation reported by mallinfo(arena+hblkhd)
           370 MiB available memory on the node where the printing process lives
------------------
     ethr =  2.26E-09,  avg # of iterations =  3.0

     negative rho (up, down):  1.795E-01 0.000E+00

     total cpu time spent up to now is       20.8 secs

     total energy              =      -2.29824228 Ry
     estimated scf accuracy    <       0.00000010 Ry

     iteration # 10     ecut=    15.00 Ry     beta= 0.70
     Davidson diagonalization with overlap

---- Real-time Memory Report at c_bands before calling an iterative solver
           207 MiB given to the printing process from OS
             0 MiB allocation reported by mallinfo(arena+hblkhd)
           364 MiB available memory on the node where the printing process lives
------------------
     ethr =  2.26E-09,  avg # of iterations =  2.0

     negative rho (up, down):  1.796E-01 0.000E+00

     total cpu time spent up to now is       21.2 secs

     total energy              =      -2.29814529 Ry
     estimated scf accuracy    <       0.00000007 Ry

     iteration # 11     ecut=    15.00 Ry     beta= 0.70
     Davidson diagonalization with overlap

---- Real-time Memory Report at c_bands before calling an iterative solver
           207 MiB given to the printing process from OS
             0 MiB allocation reported by mallinfo(arena+hblkhd)
           364 MiB available memory on the node where the printing process lives
------------------
     ethr =  2.26E-09,  avg # of iterations =  2.0

     negative rho (up, down):  1.796E-01 0.000E+00

     total cpu time spent up to now is       21.6 secs

     total energy              =      -2.29813574 Ry
     estimated scf accuracy    <       0.00000002 Ry

     iteration # 12     ecut=    15.00 Ry     beta= 0.70
     Davidson diagonalization with overlap

---- Real-time Memory Report at c_bands before calling an iterative solver
           207 MiB given to the printing process from OS
             0 MiB allocation reported by mallinfo(arena+hblkhd)
           364 MiB available memory on the node where the printing process lives
------------------
     ethr =  7.88E-10,  avg # of iterations =  4.0

     negative rho (up, down):  1.796E-01 0.000E+00

     total cpu time spent up to now is       22.0 secs

     total energy              =      -2.29814362 Ry
     estimated scf accuracy    <       0.00000006 Ry

     iteration # 13     ecut=    15.00 Ry     beta= 0.70
     Davidson diagonalization with overlap

---- Real-time Memory Report at c_bands before calling an iterative solver
           207 MiB given to the printing process from OS
             0 MiB allocation reported by mallinfo(arena+hblkhd)
           364 MiB available memory on the node where the printing process lives
------------------
     ethr =  7.88E-10,  avg # of iterations =  4.0

     negative rho (up, down):  1.796E-01 0.000E+00

     total cpu time spent up to now is       22.4 secs

     total energy              =      -2.29813696 Ry
     estimated scf accuracy    <       0.00000001 Ry

     iteration # 14     ecut=    15.00 Ry     beta= 0.70
     Davidson diagonalization with overlap

---- Real-time Memory Report at c_bands before calling an iterative solver
           207 MiB given to the printing process from OS
             0 MiB allocation reported by mallinfo(arena+hblkhd)
           364 MiB available memory on the node where the printing process lives
------------------
     ethr =  5.05E-10,  avg # of iterations =  4.0

     negative rho (up, down):  1.796E-01 0.000E+00

     total cpu time spent up to now is       22.9 secs

     total energy              =      -2.29814180 Ry
     estimated scf accuracy    <       0.00000007 Ry

     iteration # 15     ecut=    15.00 Ry     beta= 0.70
     Davidson diagonalization with overlap

---- Real-time Memory Report at c_bands before calling an iterative solver
           207 MiB given to the printing process from OS
             0 MiB allocation reported by mallinfo(arena+hblkhd)
           364 MiB available memory on the node where the printing process lives
------------------
     ethr =  5.05E-10,  avg # of iterations =  4.0

     negative rho (up, down):  1.796E-01 0.000E+00

     total cpu time spent up to now is       23.3 secs

     total energy              =      -2.29814609 Ry
     estimated scf accuracy    <       0.00000001 Ry

     iteration # 16     ecut=    15.00 Ry     beta= 0.70
     Davidson diagonalization with overlap

---- Real-time Memory Report at c_bands before calling an iterative solver
           207 MiB given to the printing process from OS
             0 MiB allocation reported by mallinfo(arena+hblkhd)
           364 MiB available memory on the node where the printing process lives
------------------
     ethr =  5.05E-10,  avg # of iterations =  2.0

     negative rho (up, down):  1.796E-01 0.000E+00

     total cpu time spent up to now is       23.7 secs

     total energy              =      -2.29814047 Ry
     estimated scf accuracy    <       0.00000001 Ry

     iteration # 17     ecut=    15.00 Ry     beta= 0.70
     Davidson diagonalization with overlap

---- Real-time Memory Report at c_bands before calling an iterative solver
           207 MiB given to the printing process from OS
             0 MiB allocation reported by mallinfo(arena+hblkhd)
           364 MiB available memory on the node where the printing process lives
------------------
     ethr =  5.05E-10,  avg # of iterations =  4.0

     negative rho (up, down):  1.796E-01 0.000E+00

     total cpu time spent up to now is       24.1 secs

     total energy              =      -2.29814196 Ry
     estimated scf accuracy    <       0.00000004 Ry

     iteration # 18     ecut=    15.00 Ry     beta= 0.70
     Davidson diagonalization with overlap

---- Real-time Memory Report at c_bands before calling an iterative solver
           207 MiB given to the printing process from OS
             0 MiB allocation reported by mallinfo(arena+hblkhd)
           364 MiB available memory on the node where the printing process lives
------------------
     ethr =  5.05E-10,  avg # of iterations =  2.0

     negative rho (up, down):  1.796E-01 0.000E+00

     total cpu time spent up to now is       24.5 secs

     total energy              =      -2.29814128 Ry
     estimated scf accuracy    <       0.00000004 Ry

     iteration # 19     ecut=    15.00 Ry     beta= 0.70
     Davidson diagonalization with overlap

---- Real-time Memory Report at c_bands before calling an iterative solver
           207 MiB given to the printing process from OS
             0 MiB allocation reported by mallinfo(arena+hblkhd)
           364 MiB available memory on the node where the printing process lives
------------------
     ethr =  5.05E-10,  avg # of iterations =  3.0

     negative rho (up, down):  1.796E-01 0.000E+00

     total cpu time spent up to now is       24.9 secs

     total energy              =      -2.29814591 Ry
     estimated scf accuracy    <       0.00000005 Ry

     iteration # 20     ecut=    15.00 Ry     beta= 0.70
     Davidson diagonalization with overlap

---- Real-time Memory Report at c_bands before calling an iterative solver
           207 MiB given to the printing process from OS
             0 MiB allocation reported by mallinfo(arena+hblkhd)
           364 MiB available memory on the node where the printing process lives
------------------
     ethr =  5.05E-10,  avg # of iterations =  4.0

     negative rho (up, down):  1.796E-01 0.000E+00

     total cpu time spent up to now is       25.3 secs

     total energy              =      -2.29814248 Ry
     estimated scf accuracy    <       0.00000001 Ry

     iteration # 21     ecut=    15.00 Ry     beta= 0.70
     Davidson diagonalization with overlap

---- Real-time Memory Report at c_bands before calling an iterative solver
           207 MiB given to the printing process from OS
             0 MiB allocation reported by mallinfo(arena+hblkhd)
           364 MiB available memory on the node where the printing process lives
------------------
     ethr =  5.01E-10,  avg # of iterations =  4.0

     negative rho (up, down):  1.796E-01 0.000E+00

     total cpu time spent up to now is       25.7 secs

     total energy              =      -2.29814934 Ry
     estimated scf accuracy    <       0.00000004 Ry

     iteration # 22     ecut=    15.00 Ry     beta= 0.70
     Davidson diagonalization with overlap

---- Real-time Memory Report at c_bands before calling an iterative solver
           207 MiB given to the printing process from OS
             0 MiB allocation reported by mallinfo(arena+hblkhd)
           364 MiB available memory on the node where the printing process lives
------------------
     ethr =  5.01E-10,  avg # of iterations =  4.0

     negative rho (up, down):  1.796E-01 0.000E+00

     total cpu time spent up to now is       26.1 secs

     total energy              =      -2.29815136 Ry
     estimated scf accuracy    <       0.00000001 Ry

     iteration # 23     ecut=    15.00 Ry     beta= 0.70
     Davidson diagonalization with overlap

---- Real-time Memory Report at c_bands before calling an iterative solver
           207 MiB given to the printing process from OS
             0 MiB allocation reported by mallinfo(arena+hblkhd)
           364 MiB available memory on the node where the printing process lives
------------------
     ethr =  5.01E-10,  avg # of iterations =  1.0

     negative rho (up, down):  1.796E-01 0.000E+00

     total cpu time spent up to now is       26.5 secs

     total energy              =      -2.29815320 Ry
     estimated scf accuracy    <       0.00000001 Ry

     iteration # 24     ecut=    15.00 Ry     beta= 0.70
     Davidson diagonalization with overlap

---- Real-time Memory Report at c_bands before calling an iterative solver
           207 MiB given to the printing process from OS
             0 MiB allocation reported by mallinfo(arena+hblkhd)
           364 MiB available memory on the node where the printing process lives
------------------
     ethr =  5.01E-10,  avg # of iterations =  4.0

     negative rho (up, down):  1.796E-01 0.000E+00

     total cpu time spent up to now is       26.9 secs

     total energy              =      -2.29814070 Ry
     estimated scf accuracy    <       0.00000002 Ry

     iteration # 25     ecut=    15.00 Ry     beta= 0.70
     Davidson diagonalization with overlap

---- Real-time Memory Report at c_bands before calling an iterative solver
           207 MiB given to the printing process from OS
             0 MiB allocation reported by mallinfo(arena+hblkhd)
           364 MiB available memory on the node where the printing process lives
------------------
     ethr =  5.01E-10,  avg # of iterations =  4.0

     negative rho (up, down):  1.795E-01 0.000E+00

     total cpu time spent up to now is       27.3 secs

     End of self-consistent calculation

          k =-0.5000-0.5000-0.5000 ( 26344 PWs)   bands (ev):

   -10.7499  -1.4535

     occupation numbers 
     1.0000   0.0000

     highest occupied, lowest unoccupied level (ev):   -10.7499   -1.4535

!    total energy              =      -2.29818416 Ry
     estimated scf accuracy    <          5.1E-09 Ry

     The total energy is the sum of the following terms:
     one-electron contribution =      -4.24907479 Ry
     hartree contribution      =       2.28340488 Ry
     xc contribution           =      -1.40137227 Ry
     ewald contribution        =       1.06885802 Ry

     convergence has been achieved in  25 iterations

     Forces acting on atoms (cartesian axes, Ry/au):

     atom    1 type  1   force =     0.02076986    0.00000000    0.00000000
     atom    2 type  1   force =    -0.02076986    0.00000000    0.00000000
     The non-local contrib.  to forces
     atom    1 type  1   force =     0.14406141    0.00000000    0.00000000
     atom    2 type  1   force =    -0.14201978    0.00000000    0.00000000
     The ionic contribution  to forces
     atom    1 type  1   force =    -1.04628046    0.00000000   -0.00000000
     atom    2 type  1   force =     1.04628046   -0.00000000   -0.00000000
     The local contribution  to forces
     atom    1 type  1   force =     0.92413128    0.00000000    0.00000000
     atom    2 type  1   force =    -0.92400891    0.00000000    0.00000000
     The core correction contribution to forces
     atom    1 type  1   force =     0.00000000    0.00000000    0.00000000
     atom    2 type  1   force =     0.00000000    0.00000000    0.00000000
     The Hubbard contrib.    to forces
     atom    1 type  1   force =     0.00000000    0.00000000    0.00000000
     atom    2 type  1   force =     0.00000000    0.00000000    0.00000000
     The SCF correction term to forces
     atom    1 type  1   force =     0.00041532   -0.00000000    0.00000000
     atom    2 type  1   force =     0.00053604   -0.00000000    0.00000000

     Total force =     0.029373     Total SCF correction =     0.000678
     Energy error            =      4.7E-03 Ry
     Gradient error          =      2.1E-02 Ry/Bohr

     number of scf cycles    =   2
     number of bfgs steps    =   1

     energy             old  =      -2.2934772949 Ry
     energy             new  =      -2.2981841614 Ry

     CASE: energy            _new < energy            _old

     new trust radius        =       0.0260457037 bohr
     new conv_thr            =       0.0000000021 Ry


ATOMIC_POSITIONS (angstrom)
H             0.0680427413        0.0000000000        0.0000000000
H             0.7719572587        0.0000000000        0.0000000000



     Writing config-only to output data dir ./.save/
     NEW-OLD atomic charge density approx. for the potential

     negative rho (up, down):  1.799E-01 0.000E+00

     total cpu time spent up to now is       27.7 secs

     Self-consistent Calculation

     iteration #  1     ecut=    15.00 Ry     beta= 0.70
     Davidson diagonalization with overlap

---- Real-time Memory Report at c_bands before calling an iterative solver
           207 MiB given to the printing process from OS
             0 MiB allocation reported by mallinfo(arena+hblkhd)
           472 MiB available memory on the node where the printing process lives
------------------
     ethr =  1.00E-06,  avg # of iterations =  4.0

     negative rho (up, down):  1.851E-01 0.000E+00

     total cpu time spent up to now is       28.1 secs

     total energy              =      -2.29539867 Ry
     estimated scf accuracy    <       0.00020359 Ry

     iteration #  2     ecut=    15.00 Ry     beta= 0.70
     Davidson diagonalization with overlap

---- Real-time Memory Report at c_bands before calling an iterative solver
           207 MiB given to the printing process from OS
             0 MiB allocation reported by mallinfo(arena+hblkhd)
           415 MiB available memory on the node where the printing process lives
------------------
     ethr =  1.02E-05,  avg # of iterations =  2.0

     negative rho (up, down):  1.865E-01 0.000E+00

     total cpu time spent up to now is       28.5 secs

     total energy              =      -2.29456568 Ry
     estimated scf accuracy    <       0.00000436 Ry

     iteration #  3     ecut=    15.00 Ry     beta= 0.70
     Davidson diagonalization with overlap

---- Real-time Memory Report at c_bands before calling an iterative solver
           207 MiB given to the printing process from OS
             0 MiB allocation reported by mallinfo(arena+hblkhd)
           408 MiB available memory on the node where the printing process lives
------------------
     ethr =  2.18E-07,  avg # of iterations =  5.0

     negative rho (up, down):  1.867E-01 0.000E+00

     total cpu time spent up to now is       28.9 secs

     total energy              =      -2.29446487 Ry
     estimated scf accuracy    <       0.00000008 Ry

     iteration #  4     ecut=    15.00 Ry     beta= 0.70
     Davidson diagonalization with overlap

---- Real-time Memory Report at c_bands before calling an iterative solver
           207 MiB given to the printing process from OS
             0 MiB allocation reported by mallinfo(arena+hblkhd)
           402 MiB available memory on the node where the printing process lives
------------------
     ethr =  3.88E-09,  avg # of iterations =  3.0

     negative rho (up, down):  1.867E-01 0.000E+00

     total cpu time spent up to now is       29.3 secs

     total energy              =      -2.29448933 Ry
     estimated scf accuracy    <       0.00000010 Ry

     iteration #  5     ecut=    15.00 Ry     beta= 0.70
     Davidson diagonalization with overlap

---- Real-time Memory Report at c_bands before calling an iterative solver
           207 MiB given to the printing process from OS
             0 MiB allocation reported by mallinfo(arena+hblkhd)
           395 MiB available memory on the node where the printing process lives
------------------
     ethr =  3.88E-09,  avg # of iterations =  2.0

     negative rho (up, down):  1.867E-01 0.000E+00

     total cpu time spent up to now is       29.6 secs

     total energy              =      -2.29445517 Ry
     estimated scf accuracy    <       0.00000001 Ry

     iteration #  6     ecut=    15.00 Ry     beta= 0.70
     Davidson diagonalization with overlap

---- Real-time Memory Report at c_bands before calling an iterative solver
           207 MiB given to the printing process from OS
             0 MiB allocation reported by mallinfo(arena+hblkhd)
           389 MiB available memory on the node where the printing process lives
------------------
     ethr =  5.64E-10,  avg # of iterations =  5.0

     negative rho (up, down):  1.867E-01 0.000E+00

     total cpu time spent up to now is       30.1 secs

     total energy              =      -2.29442002 Ry
     estimated scf accuracy    <       0.00000305 Ry

     iteration #  7     ecut=    15.00 Ry     beta= 0.70
     Davidson diagonalization with overlap

---- Real-time Memory Report at c_bands before calling an iterative solver
           207 MiB given to the printing process from OS
             0 MiB allocation reported by mallinfo(arena+hblkhd)
           382 MiB available memory on the node where the printing process lives
------------------
     ethr =  5.64E-10,  avg # of iterations =  4.0

     negative rho (up, down):  1.867E-01 0.000E+00

     total cpu time spent up to now is       30.5 secs

     total energy              =      -2.29443859 Ry
     estimated scf accuracy    <       0.00000051 Ry

     iteration #  8     ecut=    15.00 Ry     beta= 0.70
     Davidson diagonalization with overlap

---- Real-time Memory Report at c_bands before calling an iterative solver
           207 MiB given to the printing process from OS
             0 MiB allocation reported by mallinfo(arena+hblkhd)
           376 MiB available memory on the node where the printing process lives
------------------
     ethr =  5.64E-10,  avg # of iterations =  3.0

     negative rho (up, down):  1.867E-01 0.000E+00

     total cpu time spent up to now is       30.9 secs

     total energy              =      -2.29445046 Ry
     estimated scf accuracy    <       0.00000053 Ry

     iteration #  9     ecut=    15.00 Ry     beta= 0.70
     Davidson diagonalization with overlap

---- Real-time Memory Report at c_bands before calling an iterative solver
           207 MiB given to the printing process from OS
             0 MiB allocation reported by mallinfo(arena+hblkhd)
           369 MiB available memory on the node where the printing process lives
------------------
     ethr =  5.64E-10,  avg # of iterations =  4.0

     negative rho (up, down):  1.868E-01 0.000E+00

     total cpu time spent up to now is       31.3 secs

     total energy              =      -2.29442921 Ry
     estimated scf accuracy    <       0.00000073 Ry

     iteration # 10     ecut=    15.00 Ry     beta= 0.70
     Davidson diagonalization with overlap

---- Real-time Memory Report at c_bands before calling an iterative solver
           207 MiB given to the printing process from OS
             0 MiB allocation reported by mallinfo(arena+hblkhd)
           363 MiB available memory on the node where the printing process lives
------------------
     ethr =  5.64E-10,  avg # of iterations =  4.0

     negative rho (up, down):  1.868E-01 0.000E+00

     total cpu time spent up to now is       31.7 secs

     total energy              =      -2.29444824 Ry
     estimated scf accuracy    <          8.0E-09 Ry

     iteration # 11     ecut=    15.00 Ry     beta= 0.70
     Davidson diagonalization with overlap

---- Real-time Memory Report at c_bands before calling an iterative solver
           207 MiB given to the printing process from OS
             0 MiB allocation reported by mallinfo(arena+hblkhd)
           363 MiB available memory on the node where the printing process lives
------------------
     ethr =  3.98E-10,  avg # of iterations =  2.0

     negative rho (up, down):  1.868E-01 0.000E+00

     total cpu time spent up to now is       32.1 secs

     total energy              =      -2.29444720 Ry
     estimated scf accuracy    <          7.7E-09 Ry

     iteration # 12     ecut=    15.00 Ry     beta= 0.70
     Davidson diagonalization with overlap

---- Real-time Memory Report at c_bands before calling an iterative solver
           207 MiB given to the printing process from OS
             0 MiB allocation reported by mallinfo(arena+hblkhd)
           363 MiB available memory on the node where the printing process lives
------------------
     ethr =  3.87E-10,  avg # of iterations =  5.0

     negative rho (up, down):  1.867E-01 0.000E+00

     total cpu time spent up to now is       32.5 secs

     total energy              =      -2.29449299 Ry
     estimated scf accuracy    <       0.00000081 Ry

     iteration # 13     ecut=    15.00 Ry     beta= 0.70
     Davidson diagonalization with overlap

---- Real-time Memory Report at c_bands before calling an iterative solver
           207 MiB given to the printing process from OS
             0 MiB allocation reported by mallinfo(arena+hblkhd)
           363 MiB available memory on the node where the printing process lives
------------------
     ethr =  3.87E-10,  avg # of iterations =  4.0

     negative rho (up, down):  1.867E-01 0.000E+00

     total cpu time spent up to now is       32.9 secs

     total energy              =      -2.29452685 Ry
     estimated scf accuracy    <       0.00000116 Ry

     iteration # 14     ecut=    15.00 Ry     beta= 0.70
     Davidson diagonalization with overlap

---- Real-time Memory Report at c_bands before calling an iterative solver
           207 MiB given to the printing process from OS
             0 MiB allocation reported by mallinfo(arena+hblkhd)
           363 MiB available memory on the node where the printing process lives
------------------
     ethr =  3.87E-10,  avg # of iterations =  5.0

     negative rho (up, down):  1.867E-01 0.000E+00

     total cpu time spent up to now is       33.4 secs

     total energy              =      -2.29457751 Ry
     estimated scf accuracy    <       0.00000047 Ry

     iteration # 15     ecut=    15.00 Ry     beta= 0.70
     Davidson diagonalization with overlap

---- Real-time Memory Report at c_bands before calling an iterative solver
           207 MiB given to the printing process from OS
             0 MiB allocation reported by mallinfo(arena+hblkhd)
           363 MiB available memory on the node where the printing process lives
------------------
     ethr =  3.87E-10,  avg # of iterations =  4.0

     negative rho (up, down):  1.867E-01 0.000E+00

     total cpu time spent up to now is       33.8 secs

     total energy              =      -2.29449889 Ry
     estimated scf accuracy    <       0.00000025 Ry

     iteration # 16     ecut=    15.00 Ry     beta= 0.70
     Davidson diagonalization with overlap

---- Real-time Memory Report at c_bands before calling an iterative solver
           207 MiB given to the printing process from OS
             0 MiB allocation reported by mallinfo(arena+hblkhd)
           363 MiB available memory on the node where the printing process lives
------------------
     ethr =  3.87E-10,  avg # of iterations =  5.0

     negative rho (up, down):  1.867E-01 0.000E+00

     total cpu time spent up to now is       34.2 secs

     total energy              =      -2.29440854 Ry
     estimated scf accuracy    <       0.00000152 Ry

     iteration # 17     ecut=    15.00 Ry     beta= 0.70
     Davidson diagonalization with overlap

---- Real-time Memory Report at c_bands before calling an iterative solver
           207 MiB given to the printing process from OS
             0 MiB allocation reported by mallinfo(arena+hblkhd)
           363 MiB available memory on the node where the printing process lives
------------------
     ethr =  3.87E-10,  avg # of iterations =  5.0

     negative rho (up, down):  1.868E-01 0.000E+00

     total cpu time spent up to now is       34.7 secs

     total energy              =      -2.29441280 Ry
     estimated scf accuracy    <       0.00000043 Ry

     iteration # 18     ecut=    15.00 Ry     beta= 0.70
     Davidson diagonalization with overlap

---- Real-time Memory Report at c_bands before calling an iterative solver
           207 MiB given to the printing process from OS
             0 MiB allocation reported by mallinfo(arena+hblkhd)
           363 MiB available memory on the node where the printing process lives
------------------
     ethr =  3.87E-10,  avg # of iterations =  3.0

     negative rho (up, down):  1.868E-01 0.000E+00

     total cpu time spent up to now is       35.1 secs

     total energy              =      -2.29440842 Ry
     estimated scf accuracy    <       0.00000048 Ry

     iteration # 19     ecut=    15.00 Ry     beta= 0.70
     Davidson diagonalization with overlap

---- Real-time Memory Report at c_bands before calling an iterative solver
           207 MiB given to the printing process from OS
             0 MiB allocation reported by mallinfo(arena+hblkhd)
           363 MiB available memory on the node where the printing process lives
------------------
     ethr =  3.87E-10,  avg # of iterations =  4.0

     negative rho (up, down):  1.868E-01 0.000E+00

     total cpu time spent up to now is       35.5 secs

     total energy              =      -2.29439740 Ry
     estimated scf accuracy    <       0.00000027 Ry

     iteration # 20     ecut=    15.00 Ry     beta= 0.70
     Davidson diagonalization with overlap

---- Real-time Memory Report at c_bands before calling an iterative solver
           207 MiB given to the printing process from OS
             0 MiB allocation reported by mallinfo(arena+hblkhd)
           363 MiB available memory on the node where the printing process lives
------------------
     ethr =  3.87E-10,  avg # of iterations =  3.0

     negative rho (up, down):  1.868E-01 0.000E+00

     total cpu time spent up to now is       35.9 secs

     total energy              =      -2.29437860 Ry
     estimated scf accuracy    <       0.00000021 Ry

     iteration # 21     ecut=    15.00 Ry     beta= 0.70
     Davidson diagonalization with overlap

---- Real-time Memory Report at c_bands before calling an iterative solver
           207 MiB given to the printing process from OS
             0 MiB allocation reported by mallinfo(arena+hblkhd)
           363 MiB available memory on the node where the printing process lives
------------------
     ethr =  3.87E-10,  avg # of iterations =  3.0

     negative rho (up, down):  1.868E-01 0.000E+00

     total cpu time spent up to now is       36.2 secs

     total energy              =      -2.29437457 Ry
     estimated scf accuracy    <       0.00000025 Ry

     iteration # 22     ecut=    15.00 Ry     beta= 0.70
     Davidson diagonalization with overlap

---- Real-time Memory Report at c_bands before calling an iterative solver
           207 MiB given to the printing process from OS
             0 MiB allocation reported by mallinfo(arena+hblkhd)
           363 MiB available memory on the node where the printing process lives
------------------
     ethr =  3.87E-10,  avg # of iterations =  4.0

     negative rho (up, down):  1.868E-01 0.000E+00

     total cpu time spent up to now is       36.7 secs

     total energy              =      -2.29436615 Ry
     estimated scf accuracy    <       0.00000021 Ry

     iteration # 23     ecut=    15.00 Ry     beta= 0.70
     Davidson diagonalization with overlap

---- Real-time Memory Report at c_bands before calling an iterative solver
           207 MiB given to the printing process from OS
             0 MiB allocation reported by mallinfo(arena+hblkhd)
           363 MiB available memory on the node where the printing process lives
------------------
     ethr =  3.87E-10,  avg # of iterations =  3.0

     negative rho (up, down):  1.868E-01 0.000E+00

     total cpu time spent up to now is       37.1 secs

     total energy              =      -2.29437175 Ry
     estimated scf accuracy    <       0.00000023 Ry

     iteration # 24     ecut=    15.00 Ry     beta= 0.70
     Davidson diagonalization with overlap

---- Real-time Memory Report at c_bands before calling an iterative solver
           207 MiB given to the printing process from OS
             0 MiB allocation reported by mallinfo(arena+hblkhd)
           363 MiB available memory on the node where the printing process lives
------------------
     ethr =  3.87E-10,  avg # of iterations =  3.0

     negative rho (up, down):  1.868E-01 0.000E+00

     total cpu time spent up to now is       37.5 secs

     total energy              =      -2.29437515 Ry
     estimated scf accuracy    <       0.00000027 Ry

     iteration # 25     ecut=    15.00 Ry     beta= 0.70
     Davidson diagonalization with overlap

---- Real-time Memory Report at c_bands before calling an iterative solver
           207 MiB given to the printing process from OS
             0 MiB allocation reported by mallinfo(arena+hblkhd)
           363 MiB available memory on the node where the printing process lives
------------------
     ethr =  3.87E-10,  avg # of iterations =  3.0

     negative rho (up, down):  1.869E-01 0.000E+00

     total cpu time spent up to now is       37.9 secs

     total energy              =      -2.29435649 Ry
     estimated scf accuracy    <       0.00000021 Ry

     iteration # 26     ecut=    15.00 Ry     beta= 0.70
     Davidson diagonalization with overlap

---- Real-time Memory Report at c_bands before calling an iterative solver
           207 MiB given to the printing process from OS
             0 MiB allocation reported by mallinfo(arena+hblkhd)
           363 MiB available memory on the node where the printing process lives
------------------
     ethr =  3.87E-10,  avg # of iterations =  4.0

     negative rho (up, down):  1.868E-01 0.000E+00

     total cpu time spent up to now is       38.3 secs

     total energy              =      -2.29439095 Ry
     estimated scf accuracy    <       0.00000102 Ry

     iteration # 27     ecut=    15.00 Ry     beta= 0.70
     Davidson diagonalization with overlap

---- Real-time Memory Report at c_bands before calling an iterative solver
           207 MiB given to the printing process from OS
             0 MiB allocation reported by mallinfo(arena+hblkhd)
           363 MiB available memory on the node where the printing process lives
------------------
     ethr =  3.87E-10,  avg # of iterations =  4.0

     negative rho (up, down):  1.868E-01 0.000E+00

     total cpu time spent up to now is       38.7 secs

     total energy              =      -2.29444098 Ry
     estimated scf accuracy    <       0.00000036 Ry

     iteration # 28     ecut=    15.00 Ry     beta= 0.70
     Davidson diagonalization with overlap

---- Real-time Memory Report at c_bands before calling an iterative solver
           207 MiB given to the printing process from OS
             0 MiB allocation reported by mallinfo(arena+hblkhd)
           363 MiB available memory on the node where the printing process lives
------------------
     ethr =  3.87E-10,  avg # of iterations =  4.0

     negative rho (up, down):  1.868E-01 0.000E+00

     total cpu time spent up to now is       39.1 secs

     total energy              =      -2.29439545 Ry
     estimated scf accuracy    <          3.5E-09 Ry

     iteration # 29     ecut=    15.00 Ry     beta= 0.70
     Davidson diagonalization with overlap

---- Real-time Memory Report at c_bands before calling an iterative solver
           207 MiB given to the printing process from OS
             0 MiB allocation reported by mallinfo(arena+hblkhd)
           363 MiB available memory on the node where the printing process lives
------------------
     ethr =  1.76E-10,  avg # of iterations =  5.0

     negative rho (up, down):  1.869E-01 0.000E+00

     total cpu time spent up to now is       39.5 secs

     total energy              =      -2.29435168 Ry
     estimated scf accuracy    <       0.00000089 Ry

     iteration # 30     ecut=    15.00 Ry     beta= 0.70
     Davidson diagonalization with overlap

---- Real-time Memory Report at c_bands before calling an iterative solver
           207 MiB given to the printing process from OS
             0 MiB allocation reported by mallinfo(arena+hblkhd)
[...]
------------------
     ethr =  1.76E-10,  avg # of iterations =  5.0

     negative rho (up, down):  1.867E-01 0.000E+00

     total cpu time spent up to now is       59.2 secs

     total energy              =      -2.29453484 Ry
     estimated scf accuracy    <       0.00000003 Ry

     iteration # 77     ecut=    15.00 Ry     beta= 0.70
     Davidson diagonalization with overlap

---- Real-time Memory Report at c_bands before calling an iterative solver
           207 MiB given to the printing process from OS
             0 MiB allocation reported by mallinfo(arena+hblkhd)
           363 MiB available memory on the node where the printing process lives
------------------
     ethr =  1.76E-10,  avg # of iterations =  4.0

     negative rho (up, down):  1.866E-01 0.000E+00

     total cpu time spent up to now is       59.6 secs

     total energy              =      -2.29458113 Ry
     estimated scf accuracy    <       0.00000007 Ry

     iteration # 78     ecut=    15.00 Ry     beta= 0.70
     Davidson diagonalization with overlap

---- Real-time Memory Report at c_bands before calling an iterative solver
           207 MiB given to the printing process from OS
             0 MiB allocation reported by mallinfo(arena+hblkhd)
           363 MiB available memory on the node where the printing process lives
------------------
     ethr =  1.76E-10,  avg # of iterations =  4.0

     negative rho (up, down):  1.867E-01 0.000E+00

     total cpu time spent up to now is       60.0 secs

     total energy              =      -2.29448708 Ry
     estimated scf accuracy    <       0.00000049 Ry

     iteration # 79     ecut=    15.00 Ry     beta= 0.70
     Davidson diagonalization with overlap

---- Real-time Memory Report at c_bands before calling an iterative solver
           207 MiB given to the printing process from OS
             0 MiB allocation reported by mallinfo(arena+hblkhd)
           363 MiB available memory on the node where the printing process lives
------------------
     ethr =  1.76E-10,  avg # of iterations =  5.0

     negative rho (up, down):  1.867E-01 0.000E+00

     total cpu time spent up to now is       60.4 secs

     total energy              =      -2.29453165 Ry
     estimated scf accuracy    <       0.00000039 Ry

     iteration # 80     ecut=    15.00 Ry     beta= 0.70
     Davidson diagonalization with overlap

---- Real-time Memory Report at c_bands before calling an iterative solver
           207 MiB given to the printing process from OS
             0 MiB allocation reported by mallinfo(arena+hblkhd)
           363 MiB available memory on the node where the printing process lives
------------------
     ethr =  1.76E-10,  avg # of iterations =  5.0

     negative rho (up, down):  1.867E-01 0.000E+00

     total cpu time spent up to now is       60.8 secs

     total energy              =      -2.29451799 Ry
     estimated scf accuracy    <       0.00000042 Ry

     iteration # 81     ecut=    15.00 Ry     beta= 0.70
     Davidson diagonalization with overlap

---- Real-time Memory Report at c_bands before calling an iterative solver
           207 MiB given to the printing process from OS
             0 MiB allocation reported by mallinfo(arena+hblkhd)
           363 MiB available memory on the node where the printing process lives
------------------
     ethr =  1.76E-10,  avg # of iterations =  4.0

     negative rho (up, down):  1.866E-01 0.000E+00

     total cpu time spent up to now is       61.3 secs

     total energy              =      -2.29452499 Ry
     estimated scf accuracy    <       0.00000010 Ry

     iteration # 82     ecut=    15.00 Ry     beta= 0.70
     Davidson diagonalization with overlap

---- Real-time Memory Report at c_bands before calling an iterative solver
           207 MiB given to the printing process from OS
             0 MiB allocation reported by mallinfo(arena+hblkhd)
           363 MiB available memory on the node where the printing process lives
------------------
     ethr =  1.76E-10,  avg # of iterations =  4.0

     negative rho (up, down):  1.867E-01 0.000E+00

     total cpu time spent up to now is       61.7 secs

     total energy              =      -2.29452074 Ry
     estimated scf accuracy    <       0.00000048 Ry

     iteration # 83     ecut=    15.00 Ry     beta= 0.70
     Davidson diagonalization with overlap

---- Real-time Memory Report at c_bands before calling an iterative solver
           207 MiB given to the printing process from OS
             0 MiB allocation reported by mallinfo(arena+hblkhd)
           363 MiB available memory on the node where the printing process lives
------------------
     ethr =  1.76E-10,  avg # of iterations =  5.0

     negative rho (up, down):  1.867E-01 0.000E+00

     total cpu time spent up to now is       62.1 secs

     total energy              =      -2.29451454 Ry
     estimated scf accuracy    <       0.00000004 Ry

     iteration # 84     ecut=    15.00 Ry     beta= 0.70
     Davidson diagonalization with overlap

---- Real-time Memory Report at c_bands before calling an iterative solver
           207 MiB given to the printing process from OS
             0 MiB allocation reported by mallinfo(arena+hblkhd)
           363 MiB available memory on the node where the printing process lives
------------------
     ethr =  1.76E-10,  avg # of iterations =  4.0

     negative rho (up, down):  1.867E-01 0.000E+00

     total cpu time spent up to now is       62.5 secs

     total energy              =      -2.29451923 Ry
     estimated scf accuracy    <       0.00000005 Ry

     iteration # 85     ecut=    15.00 Ry     beta= 0.70
     Davidson diagonalization with overlap

---- Real-time Memory Report at c_bands before calling an iterative solver
           207 MiB given to the printing process from OS
             0 MiB allocation reported by mallinfo(arena+hblkhd)
           363 MiB available memory on the node where the printing process lives
------------------
     ethr =  1.76E-10,  avg # of iterations =  4.0

     negative rho (up, down):  1.867E-01 0.000E+00

     total cpu time spent up to now is       62.9 secs

     total energy              =      -2.29450553 Ry
     estimated scf accuracy    <       0.00000001 Ry

     iteration # 86     ecut=    15.00 Ry     beta= 0.70
     Davidson diagonalization with overlap

---- Real-time Memory Report at c_bands before calling an iterative solver
           207 MiB given to the printing process from OS
             0 MiB allocation reported by mallinfo(arena+hblkhd)
           363 MiB available memory on the node where the printing process lives
------------------
     ethr =  1.76E-10,  avg # of iterations =  4.0

     negative rho (up, down):  1.866E-01 0.000E+00

     total cpu time spent up to now is       63.4 secs

     total energy              =      -2.29456005 Ry
     estimated scf accuracy    <       0.00000007 Ry

     iteration # 87     ecut=    15.00 Ry     beta= 0.70
     Davidson diagonalization with overlap

---- Real-time Memory Report at c_bands before calling an iterative solver
           207 MiB given to the printing process from OS
             0 MiB allocation reported by mallinfo(arena+hblkhd)
           363 MiB available memory on the node where the printing process lives
------------------
     ethr =  1.76E-10,  avg # of iterations =  5.0

     negative rho (up, down):  1.867E-01 0.000E+00

     total cpu time spent up to now is       63.8 secs

     total energy              =      -2.29449932 Ry
     estimated scf accuracy    <       0.00000026 Ry

     iteration # 88     ecut=    15.00 Ry     beta= 0.70
     Davidson diagonalization with overlap

---- Real-time Memory Report at c_bands before calling an iterative solver
           207 MiB given to the printing process from OS
             0 MiB allocation reported by mallinfo(arena+hblkhd)
           363 MiB available memory on the node where the printing process lives
------------------
     ethr =  1.76E-10,  avg # of iterations =  5.0

     negative rho (up, down):  1.867E-01 0.000E+00

     total cpu time spent up to now is       64.2 secs

     total energy              =      -2.29449699 Ry
     estimated scf accuracy    <       0.00000020 Ry

     iteration # 89     ecut=    15.00 Ry     beta= 0.70
     Davidson diagonalization with overlap

---- Real-time Memory Report at c_bands before calling an iterative solver
           207 MiB given to the printing process from OS
             0 MiB allocation reported by mallinfo(arena+hblkhd)
           362 MiB available memory on the node where the printing process lives
------------------
     ethr =  1.76E-10,  avg # of iterations =  4.0

     negative rho (up, down):  1.867E-01 0.000E+00

     total cpu time spent up to now is       64.6 secs

     total energy              =      -2.29447874 Ry
     estimated scf accuracy    <       0.00000007 Ry

     iteration # 90     ecut=    15.00 Ry     beta= 0.70
     Davidson diagonalization with overlap

---- Real-time Memory Report at c_bands before calling an iterative solver
           207 MiB given to the printing process from OS
             0 MiB allocation reported by mallinfo(arena+hblkhd)
           362 MiB available memory on the node where the printing process lives
------------------
     ethr =  1.76E-10,  avg # of iterations =  4.0

     negative rho (up, down):  1.867E-01 0.000E+00

     total cpu time spent up to now is       65.1 secs

     total energy              =      -2.29447884 Ry
     estimated scf accuracy    <       0.00000035 Ry

     iteration # 91     ecut=    15.00 Ry     beta= 0.70
     Davidson diagonalization with overlap

---- Real-time Memory Report at c_bands before calling an iterative solver
           207 MiB given to the printing process from OS
             0 MiB allocation reported by mallinfo(arena+hblkhd)
           362 MiB available memory on the node where the printing process lives
------------------
     ethr =  1.76E-10,  avg # of iterations =  3.0

     negative rho (up, down):  1.867E-01 0.000E+00

     total cpu time spent up to now is       65.5 secs

     total energy              =      -2.29447953 Ry
     estimated scf accuracy    <       0.00000033 Ry

     iteration # 92     ecut=    15.00 Ry     beta= 0.70
     Davidson diagonalization with overlap

---- Real-time Memory Report at c_bands before calling an iterative solver
           207 MiB given to the printing process from OS
             0 MiB allocation reported by mallinfo(arena+hblkhd)
           362 MiB available memory on the node where the printing process lives
------------------
     ethr =  1.76E-10,  avg # of iterations =  3.0

     negative rho (up, down):  1.868E-01 0.000E+00

     total cpu time spent up to now is       65.9 secs

     total energy              =      -2.29445434 Ry
     estimated scf accuracy    <       0.00000034 Ry

     iteration # 93     ecut=    15.00 Ry     beta= 0.70
     Davidson diagonalization with overlap

---- Real-time Memory Report at c_bands before calling an iterative solver
           207 MiB given to the printing process from OS
             0 MiB allocation reported by mallinfo(arena+hblkhd)
           362 MiB available memory on the node where the printing process lives
------------------
     ethr =  1.76E-10,  avg # of iterations =  4.0

     negative rho (up, down):  1.868E-01 0.000E+00

     total cpu time spent up to now is       66.3 secs

     total energy              =      -2.29445963 Ry
     estimated scf accuracy    <       0.00000011 Ry

     iteration # 94     ecut=    15.00 Ry     beta= 0.70
     Davidson diagonalization with overlap

---- Real-time Memory Report at c_bands before calling an iterative solver
           207 MiB given to the printing process from OS
             0 MiB allocation reported by mallinfo(arena+hblkhd)
           362 MiB available memory on the node where the printing process lives
------------------
     ethr =  1.76E-10,  avg # of iterations =  3.0

     negative rho (up, down):  1.868E-01 0.000E+00

     total cpu time spent up to now is       66.7 secs

     total energy              =      -2.29446018 Ry
     estimated scf accuracy    <       0.00000014 Ry

     iteration # 95     ecut=    15.00 Ry     beta= 0.70
     Davidson diagonalization with overlap

---- Real-time Memory Report at c_bands before calling an iterative solver
           207 MiB given to the printing process from OS
             0 MiB allocation reported by mallinfo(arena+hblkhd)
           362 MiB available memory on the node where the printing process lives
------------------
     ethr =  1.76E-10,  avg # of iterations =  3.0

     negative rho (up, down):  1.868E-01 0.000E+00

     total cpu time spent up to now is       67.1 secs

     total energy              =      -2.29447161 Ry
     estimated scf accuracy    <       0.00000010 Ry

     iteration # 96     ecut=    15.00 Ry     beta= 0.70
     Davidson diagonalization with overlap

---- Real-time Memory Report at c_bands before calling an iterative solver
           207 MiB given to the printing process from OS
             0 MiB allocation reported by mallinfo(arena+hblkhd)
           362 MiB available memory on the node where the printing process lives
------------------
     ethr =  1.76E-10,  avg # of iterations =  3.0

     negative rho (up, down):  1.867E-01 0.000E+00

     total cpu time spent up to now is       67.5 secs

     total energy              =      -2.29449082 Ry
     estimated scf accuracy    <       0.00000005 Ry

     iteration # 97     ecut=    15.00 Ry     beta= 0.70
     Davidson diagonalization with overlap

---- Real-time Memory Report at c_bands before calling an iterative solver
           207 MiB given to the printing process from OS
             0 MiB allocation reported by mallinfo(arena+hblkhd)
           362 MiB available memory on the node where the printing process lives
------------------
     ethr =  1.76E-10,  avg # of iterations =  5.0

     negative rho (up, down):  1.867E-01 0.000E+00

     total cpu time spent up to now is       67.9 secs

     total energy              =      -2.29449259 Ry
     estimated scf accuracy    <       0.00000019 Ry

     iteration # 98     ecut=    15.00 Ry     beta= 0.70
     Davidson diagonalization with overlap

---- Real-time Memory Report at c_bands before calling an iterative solver
           207 MiB given to the printing process from OS
             0 MiB allocation reported by mallinfo(arena+hblkhd)
           362 MiB available memory on the node where the printing process lives
------------------
     ethr =  1.76E-10,  avg # of iterations =  4.0

     negative rho (up, down):  1.867E-01 0.000E+00

     total cpu time spent up to now is       68.3 secs

     total energy              =      -2.29449551 Ry
     estimated scf accuracy    <       0.00000006 Ry

     iteration # 99     ecut=    15.00 Ry     beta= 0.70
     Davidson diagonalization with overlap

---- Real-time Memory Report at c_bands before calling an iterative solver
           207 MiB given to the printing process from OS
             0 MiB allocation reported by mallinfo(arena+hblkhd)
           362 MiB available memory on the node where the printing process lives
------------------
     ethr =  1.76E-10,  avg # of iterations =  3.0

     negative rho (up, down):  1.866E-01 0.000E+00

     total cpu time spent up to now is       68.7 secs

     total energy              =      -2.29454695 Ry
     estimated scf accuracy    <       0.00000006 Ry

     iteration #100     ecut=    15.00 Ry     beta= 0.70
     Davidson diagonalization with overlap

---- Real-time Memory Report at c_bands before calling an iterative solver
           207 MiB given to the printing process from OS
             0 MiB allocation reported by mallinfo(arena+hblkhd)
           362 MiB available memory on the node where the printing process lives
------------------
     ethr =  1.76E-10,  avg # of iterations =  4.0

     negative rho (up, down):  1.867E-01 0.000E+00

     total cpu time spent up to now is       69.2 secs

     total energy              =      -2.29449285 Ry
     estimated scf accuracy    <       0.00000003 Ry

     End of self-consistent calculation

     convergence NOT achieved after 100 iterations: stopping

     Writing config to output data dir ./.save/
     Message from routine punch:
     wavefunctions written to file

     init_run     :      0.36s CPU      0.38s WALL (       1 calls)
     electrons    :     67.95s CPU     68.09s WALL (       3 calls)
     update_pot   :      0.48s CPU      0.49s WALL (       2 calls)
     forces       :      0.18s CPU      0.18s WALL (       2 calls)

     Called by init_run:
     wfcinit      :      0.03s CPU      0.03s WALL (       1 calls)
     wfcinit:atom :      0.00s CPU      0.00s WALL (       1 calls)
     wfcinit:wfcr :      0.03s CPU      0.03s WALL (       1 calls)
     potinit      :      0.22s CPU      0.23s WALL (       1 calls)
     hinit0       :      0.02s CPU      0.02s WALL (       1 calls)

     Called by electrons:
     c_bands      :     15.69s CPU     15.72s WALL (     166 calls)
     sum_band     :      7.64s CPU      7.65s WALL (     166 calls)
     v_of_rho     :     34.01s CPU     34.05s WALL (     169 calls)
     v_h          :      1.91s CPU      1.92s WALL (     169 calls)
     v_xc         :     32.10s CPU     32.14s WALL (     169 calls)
     newd         :      2.48s CPU      2.49s WALL (     169 calls)
     mix_rho      :      8.06s CPU      8.09s WALL (     166 calls)

     Called by c_bands:
     init_us_2    :      0.23s CPU      0.24s WALL (     333 calls)
     init_us_2:cp :      0.23s CPU      0.24s WALL (     333 calls)
     cegterg      :     15.53s CPU     15.55s WALL (     166 calls)

     Called by sum_band:
     sum_band:wei :      0.00s CPU      0.00s WALL (     166 calls)
     sum_band:loo :      2.25s CPU      2.25s WALL (     166 calls)
     sum_band:buf :      0.00s CPU      0.00s WALL (     166 calls)
     sum_band:ini :      0.12s CPU      0.12s WALL (     166 calls)
     sum_band:cal :      0.03s CPU      0.03s WALL (     166 calls)
     sum_band:bec :      0.00s CPU      0.00s WALL (     166 calls)
     addusdens    :      0.71s CPU      0.71s WALL (     166 calls)
     addusd:skk   :      0.21s CPU      0.21s WALL (     166 calls)
     addusd:dgemm :      0.15s CPU      0.15s WALL (     166 calls)
     addusd:qvan2 :      0.18s CPU      0.18s WALL (     166 calls)

     Called by *egterg:
     cdiaghg      :      0.02s CPU      0.02s WALL (     788 calls)
     cegterg:over :      0.21s CPU      0.21s WALL (     624 calls)
     cegterg:upda :      0.16s CPU      0.16s WALL (     624 calls)
     cegterg:last :      0.32s CPU      0.32s WALL (     457 calls)
     h_psi        :     14.52s CPU     14.54s WALL (     791 calls)
     s_psi        :      0.08s CPU      0.08s WALL (     791 calls)
     g_psi        :      0.07s CPU      0.07s WALL (     624 calls)

     Called by h_psi:
     h_psi:calbec :      0.11s CPU      0.11s WALL (     791 calls)
     vloc_psi     :     14.27s CPU     14.29s WALL (     791 calls)
     add_vuspsi   :      0.09s CPU      0.09s WALL (     791 calls)

     General routines
     calbec       :      0.14s CPU      0.14s WALL (     965 calls)
     fft          :     16.76s CPU     16.78s WALL (    1865 calls)
     ffts         :      1.53s CPU      1.53s WALL (     166 calls)
     fftw         :     14.81s CPU     14.84s WALL (    2628 calls)
     davcio       :      0.01s CPU      0.02s WALL (      19 calls)


     PWSCF        :   1m 9.06s CPU   1m 9.25s WALL


   This run was terminated on:   3: 9: 6  28Feb2022            

=------------------------------------------------------------------------------=
   JOB DONE.
=------------------------------------------------------------------------------=
