
     Program PWSCF v.7.0 starts on 28Feb2022 at  3: 4:19 

     This program is part of the open-source Quantum ESPRESSO suite
     for quantum simulation of materials; please cite
         "P. Giannozzi et al., J. Phys.:Condens. Matter 21 395502 (2009);
         "P. Giannozzi et al., J. Phys.:Condens. Matter 29 465901 (2017);
         "P. Giannozzi et al., J. Chem. Phys. 152 154105 (2020);
          URL http://www.quantum-espresso.org", 
     in publications or presentations arising from this work. More details at
     http://www.quantum-espresso.org/quote

     Serial version
     556 MiB available memory on the printing compute node when the environment starts

     Waiting for input...
     Reading input from standard input

     Current dimensions of program PWSCF are:
     Max number of different atomic species (ntypx) = 10
     Max number of k-points (npk) =  40000
     Max angular momentum in pseudopotentials (lmaxx) =  4

     File ./.update deleted, as requested

     File ./.bfgs deleted, as requested

    ============================================================
    |  pseudopotential report for atomic species:  1           |
    |        pseudo potential version   7   3   2              |
    ------------------------------------------------------------
    |  hydrogen            PBE                  exchange-corr  |
    |  z =   1.    zv( 1) =   1.    exfact =   5.00000         |
    |  ifpcor =  0           atomic energy =  -0.91772 Ry      |
    |  index    orbital      occupation    energy              |
    |    1        100           1.00       -0.48               |
    |  rinner =  0.5000                                        |
    |    new generation scheme:                                |
    |    nbeta =  1     kkbeta =  271     rcloc =    0.6000    |
    |    ibeta    l     epsilon   rcut                         |
    |      1       0      -0.48   0.80                         |
    ============================================================

     IMPORTANT: XC functional enforced from input :
     Exchange-correlation= BLYP
                           (   1   3   1   3   0   0   0)
     Any further DFT definition will be discarded
     Please, verify this is what you really want


     G-vector sticks info
     --------------------
     sticks:   dense  smooth     PW     G-vecs:    dense   smooth      PW
     Sum        4281    4281   1185               211657   211657   30551

     Using Slab Decomposition



     bravais-lattice index     =            1
     lattice parameter (alat)  =      30.0000  a.u.
     unit-cell volume          =   27000.0000 (a.u.)^3
     number of atoms/cell      =            2
     number of atomic types    =            1
     number of electrons       =         2.00
     number of Kohn-Sham states=            2
     kinetic-energy cutoff     =      15.0000  Ry
     charge density cutoff     =      60.0000  Ry
     scf convergence threshold =      1.0E-08
     mixing beta               =       0.7000
     number of iterations used =            8  plain     mixing
     energy convergence thresh.=      1.0E-04
     force convergence thresh. =      1.0E-03
     Exchange-correlation= BLYP
                           (   1   3   1   3   0   0   0)
     nstep                     =           50


     celldm(1)=  30.000000  celldm(2)=   0.000000  celldm(3)=   0.000000
     celldm(4)=   0.000000  celldm(5)=   0.000000  celldm(6)=   0.000000

     crystal axes: (cart. coord. in units of alat)
               a(1) = (   1.000000   0.000000   0.000000 )  
               a(2) = (   0.000000   1.000000   0.000000 )  
               a(3) = (   0.000000   0.000000   1.000000 )  

     reciprocal axes: (cart. coord. in units 2 pi/alat)
               b(1) = (  1.000000  0.000000  0.000000 )  
               b(2) = (  0.000000  1.000000  0.000000 )  
               b(3) = (  0.000000  0.000000  1.000000 )  


     PseudoPot. # 1 for hy read from file:
     /root/q-e/pseudo/H_US.van
     MD5 check sum: a9a9bfe98ff56cf4de197d71fc46bb44
     Pseudo is Ultrasoft, Zval =  1.0
     Generated by Vanderbilt code, v. 7.3.2
     Using radial grid of  399 points,  1 beta functions with: 
                l(1) =   0
     Q(r) pseudized with  8 coefficients,  rinner =    0.500

     atomic species   valence    mass     pseudopotential
        H              1.00     1.00784     hy( 1.00)

      8 Sym. Ops. (no inversion) found


                                    s                        frac. trans.

      isym =  1     identity                                     

 cryst.   s( 1) = (     1          0          0      )
                  (     0          1          0      )
                  (     0          0          1      )

 cart.    s( 1) = (  1.0000000  0.0000000  0.0000000 )
                  (  0.0000000  1.0000000  0.0000000 )
                  (  0.0000000  0.0000000  1.0000000 )


      isym =  2     180 deg rotation - cart. axis [1,0,0]        

 cryst.   s( 2) = (     1          0          0      )
                  (     0         -1          0      )
                  (     0          0         -1      )

 cart.    s( 2) = (  1.0000000  0.0000000  0.0000000 )
                  (  0.0000000 -1.0000000  0.0000000 )
                  (  0.0000000  0.0000000 -1.0000000 )


      isym =  3      90 deg rotation - cart. axis [-1,0,0]       

 cryst.   s( 3) = (     1          0          0      )
                  (     0          0         -1      )
                  (     0          1          0      )

 cart.    s( 3) = (  1.0000000  0.0000000  0.0000000 )
                  (  0.0000000  0.0000000  1.0000000 )
                  (  0.0000000 -1.0000000  0.0000000 )


      isym =  4      90 deg rotation - cart. axis [1,0,0]        

 cryst.   s( 4) = (     1          0          0      )
                  (     0          0          1      )
                  (     0         -1          0      )

 cart.    s( 4) = (  1.0000000  0.0000000  0.0000000 )
                  (  0.0000000  0.0000000 -1.0000000 )
                  (  0.0000000  1.0000000  0.0000000 )


      isym =  5     inv. 180 deg rotation - cart. axis [0,0,1]   

 cryst.   s( 5) = (     1          0          0      )
                  (     0          1          0      )
                  (     0          0         -1      )

 cart.    s( 5) = (  1.0000000  0.0000000  0.0000000 )
                  (  0.0000000  1.0000000  0.0000000 )
                  (  0.0000000  0.0000000 -1.0000000 )


      isym =  6     inv. 180 deg rotation - cart. axis [0,1,0]   

 cryst.   s( 6) = (     1          0          0      )
                  (     0         -1          0      )
                  (     0          0          1      )

 cart.    s( 6) = (  1.0000000  0.0000000  0.0000000 )
                  (  0.0000000 -1.0000000  0.0000000 )
                  (  0.0000000  0.0000000  1.0000000 )


      isym =  7     inv. 180 deg rotation - cart. axis [0,1,1]   

 cryst.   s( 7) = (     1          0          0      )
                  (     0          0         -1      )
                  (     0         -1          0      )

 cart.    s( 7) = (  1.0000000  0.0000000  0.0000000 )
                  (  0.0000000  0.0000000 -1.0000000 )
                  (  0.0000000 -1.0000000  0.0000000 )


      isym =  8     inv. 180 deg rotation - cart. axis [0,1,-1]  

 cryst.   s( 8) = (     1          0          0      )
                  (     0          0          1      )
                  (     0          1          0      )

 cart.    s( 8) = (  1.0000000  0.0000000  0.0000000 )
                  (  0.0000000  0.0000000  1.0000000 )
                  (  0.0000000  1.0000000  0.0000000 )


     point group C_4v (4mm) 
     there are  5 classes
     the character table:

       E     2C4   C2    2s_v  2s_d 
A_1    1.00  1.00  1.00  1.00  1.00
A_2    1.00  1.00  1.00 -1.00 -1.00
B_1    1.00 -1.00  1.00  1.00 -1.00
B_2    1.00 -1.00  1.00 -1.00  1.00
E      2.00  0.00 -2.00  0.00  0.00

     the symmetry operations in each class and the name of the first element:

     E        1
          identity                                               
     2C4      3    4
           90 deg rotation - cart. axis [-1,0,0]                 
     C2       2
          180 deg rotation - cart. axis [1,0,0]                  
     2s_v     5    6
          inv. 180 deg rotation - cart. axis [0,0,1]             
     2s_d     7    8
          inv. 180 deg rotation - cart. axis [0,1,1]             

   Cartesian axes

     site n.     atom                  positions (alat units)
         1           H   tau(   1) = (   0.0000000   0.0000000   0.0000000  )
         2           H   tau(   2) = (   0.0478731   0.0000000   0.0000000  )

   Crystallographic axes

     site n.     atom                  positions (cryst. coord.)
         1           H   tau(   1) = (  0.0000000  0.0000000  0.0000000  )
         2           H   tau(   2) = (  0.0478731  0.0000000  0.0000000  )

     number of k points=     1
                       cart. coord. in units 2pi/alat
        k(    1) = (  -0.5000000  -0.5000000  -0.5000000), wk =   2.0000000

                       cryst. coord.
        k(    1) = (  -0.5000000  -0.5000000  -0.5000000), wk =   2.0000000

     Dense  grid:   211657 G-vectors     FFT dimensions: (  75,  75,  75)

     Dynamical RAM for                 wfc:       0.81 MB

     Dynamical RAM for     wfc (w. buffer):       0.81 MB

     Dynamical RAM for           str. fact:       3.23 MB

     Dynamical RAM for           local pot:       0.00 MB

     Dynamical RAM for          nlocal pot:       0.81 MB

     Dynamical RAM for                qrad:       0.01 MB

     Dynamical RAM for          rho,v,vnew:      19.34 MB

     Dynamical RAM for               rhoin:       6.45 MB

     Dynamical RAM for            rho*nmix:      51.67 MB

     Dynamical RAM for           G-vectors:      13.73 MB

     Dynamical RAM for          h,s,v(r/c):       0.00 MB

     Dynamical RAM for          <psi|beta>:       0.00 MB

     Dynamical RAM for                 psi:       1.62 MB

     Dynamical RAM for                hpsi:       1.62 MB

     Dynamical RAM for                spsi:       1.62 MB

     Dynamical RAM for      wfcinit/wfcrot:       1.62 MB

     Dynamical RAM for           addusdens:      19.38 MB

     Dynamical RAM for          addusforce:      27.45 MB

     Estimated static dynamical RAM per process >      66.92 MB

     Estimated max dynamical RAM per process >     146.05 MB

     Initial potential from superposition of free atoms

     starting charge       2.0000, renormalised to       2.0000

     negative rho (up, down):  9.688E-02 0.000E+00
     Starting wfcs are    2 randomized atomic wfcs

     total cpu time spent up to now is        0.4 secs

     Self-consistent Calculation

     iteration #  1     ecut=    15.00 Ry     beta= 0.70
     Davidson diagonalization with overlap

---- Real-time Memory Report at c_bands before calling an iterative solver
           123 MiB given to the printing process from OS
             0 MiB allocation reported by mallinfo(arena+hblkhd)
           476 MiB available memory on the node where the printing process lives
------------------
     ethr =  1.00E-02,  avg # of iterations =  5.0

     negative rho (up, down):  1.589E-01 0.000E+00

     total cpu time spent up to now is        0.8 secs

     total energy              =      -2.29909496 Ry
     estimated scf accuracy    <       0.11786596 Ry

     iteration #  2     ecut=    15.00 Ry     beta= 0.70
     Davidson diagonalization with overlap

---- Real-time Memory Report at c_bands before calling an iterative solver
           152 MiB given to the printing process from OS
             0 MiB allocation reported by mallinfo(arena+hblkhd)
           418 MiB available memory on the node where the printing process lives
------------------
     ethr =  5.89E-03,  avg # of iterations =  1.0

     negative rho (up, down):  1.728E-01 0.000E+00

     total cpu time spent up to now is        1.2 secs

     total energy              =      -2.29950013 Ry
     estimated scf accuracy    <       0.00144692 Ry

     iteration #  3     ecut=    15.00 Ry     beta= 0.70
     Davidson diagonalization with overlap

---- Real-time Memory Report at c_bands before calling an iterative solver
           158 MiB given to the printing process from OS
             0 MiB allocation reported by mallinfo(arena+hblkhd)
           411 MiB available memory on the node where the printing process lives
------------------
     ethr =  7.23E-05,  avg # of iterations =  9.0

     negative rho (up, down):  1.729E-01 0.000E+00

     total cpu time spent up to now is        1.6 secs

     total energy              =      -2.29980253 Ry
     estimated scf accuracy    <       0.00002306 Ry

     iteration #  4     ecut=    15.00 Ry     beta= 0.70
     Davidson diagonalization with overlap

---- Real-time Memory Report at c_bands before calling an iterative solver
           165 MiB given to the printing process from OS
             0 MiB allocation reported by mallinfo(arena+hblkhd)
           405 MiB available memory on the node where the printing process lives
------------------
     ethr =  1.15E-06,  avg # of iterations =  5.0

     negative rho (up, down):  1.734E-01 0.000E+00

     total cpu time spent up to now is        2.0 secs

     total energy              =      -2.29948959 Ry
     estimated scf accuracy    <       0.00000138 Ry

     iteration #  5     ecut=    15.00 Ry     beta= 0.70
     Davidson diagonalization with overlap

---- Real-time Memory Report at c_bands before calling an iterative solver
           171 MiB given to the printing process from OS
             0 MiB allocation reported by mallinfo(arena+hblkhd)
           398 MiB available memory on the node where the printing process lives
------------------
     ethr =  6.91E-08,  avg # of iterations =  2.0

     negative rho (up, down):  1.735E-01 0.000E+00

     total cpu time spent up to now is        2.4 secs

     total energy              =      -2.29947376 Ry
     estimated scf accuracy    <       0.00000002 Ry

     iteration #  6     ecut=    15.00 Ry     beta= 0.70
     Davidson diagonalization with overlap

---- Real-time Memory Report at c_bands before calling an iterative solver
           178 MiB given to the printing process from OS
             0 MiB allocation reported by mallinfo(arena+hblkhd)
           392 MiB available memory on the node where the printing process lives
------------------
     ethr =  1.04E-09,  avg # of iterations =  4.0

     negative rho (up, down):  1.735E-01 0.000E+00

     total cpu time spent up to now is        2.8 secs

     total energy              =      -2.29947245 Ry
     estimated scf accuracy    <       0.00000007 Ry

     iteration #  7     ecut=    15.00 Ry     beta= 0.70
     Davidson diagonalization with overlap

---- Real-time Memory Report at c_bands before calling an iterative solver
           184 MiB given to the printing process from OS
             0 MiB allocation reported by mallinfo(arena+hblkhd)
           385 MiB available memory on the node where the printing process lives
------------------
     ethr =  1.04E-09,  avg # of iterations =  3.0

     negative rho (up, down):  1.735E-01 0.000E+00

     total cpu time spent up to now is        3.2 secs

     total energy              =      -2.29947257 Ry
     estimated scf accuracy    <       0.00000002 Ry

     iteration #  8     ecut=    15.00 Ry     beta= 0.70
     Davidson diagonalization with overlap

---- Real-time Memory Report at c_bands before calling an iterative solver
           191 MiB given to the printing process from OS
             0 MiB allocation reported by mallinfo(arena+hblkhd)
           379 MiB available memory on the node where the printing process lives
------------------
     ethr =  8.76E-10,  avg # of iterations =  1.0

     negative rho (up, down):  1.735E-01 0.000E+00

     total cpu time spent up to now is        3.5 secs

     total energy              =      -2.29945672 Ry
     estimated scf accuracy    <       0.00000002 Ry

     iteration #  9     ecut=    15.00 Ry     beta= 0.70
     Davidson diagonalization with overlap

---- Real-time Memory Report at c_bands before calling an iterative solver
           197 MiB given to the printing process from OS
             0 MiB allocation reported by mallinfo(arena+hblkhd)
           373 MiB available memory on the node where the printing process lives
------------------
     ethr =  8.76E-10,  avg # of iterations =  4.0

     negative rho (up, down):  1.735E-01 0.000E+00

     total cpu time spent up to now is        3.9 secs

     total energy              =      -2.29947472 Ry
     estimated scf accuracy    <       0.00000003 Ry

     iteration # 10     ecut=    15.00 Ry     beta= 0.70
     Davidson diagonalization with overlap

---- Real-time Memory Report at c_bands before calling an iterative solver
           203 MiB given to the printing process from OS
             0 MiB allocation reported by mallinfo(arena+hblkhd)
           366 MiB available memory on the node where the printing process lives
------------------
     ethr =  8.76E-10,  avg # of iterations =  4.0

     negative rho (up, down):  1.735E-01 0.000E+00

     total cpu time spent up to now is        4.4 secs

     total energy              =      -2.29947862 Ry
     estimated scf accuracy    <       0.00000003 Ry

     iteration # 11     ecut=    15.00 Ry     beta= 0.70
     Davidson diagonalization with overlap

---- Real-time Memory Report at c_bands before calling an iterative solver
           203 MiB given to the printing process from OS
             0 MiB allocation reported by mallinfo(arena+hblkhd)
           366 MiB available memory on the node where the printing process lives
------------------
     ethr =  8.76E-10,  avg # of iterations =  2.0

     negative rho (up, down):  1.735E-01 0.000E+00

     total cpu time spent up to now is        4.7 secs

     total energy              =      -2.29947977 Ry
     estimated scf accuracy    <       0.00000002 Ry

     iteration # 12     ecut=    15.00 Ry     beta= 0.70
     Davidson diagonalization with overlap

---- Real-time Memory Report at c_bands before calling an iterative solver
           203 MiB given to the printing process from OS
             0 MiB allocation reported by mallinfo(arena+hblkhd)
           366 MiB available memory on the node where the printing process lives
------------------
     ethr =  8.76E-10,  avg # of iterations =  2.0

     negative rho (up, down):  1.735E-01 0.000E+00

     total cpu time spent up to now is        5.1 secs

     total energy              =      -2.29947230 Ry
     estimated scf accuracy    <       0.00000002 Ry

     iteration # 13     ecut=    15.00 Ry     beta= 0.70
     Davidson diagonalization with overlap

---- Real-time Memory Report at c_bands before calling an iterative solver
           203 MiB given to the printing process from OS
             0 MiB allocation reported by mallinfo(arena+hblkhd)
           366 MiB available memory on the node where the printing process lives
------------------
     ethr =  8.76E-10,  avg # of iterations =  3.0

     negative rho (up, down):  1.735E-01 0.000E+00

     total cpu time spent up to now is        5.5 secs

     total energy              =      -2.29947549 Ry
     estimated scf accuracy    <       0.00000003 Ry

     iteration # 14     ecut=    15.00 Ry     beta= 0.70
     Davidson diagonalization with overlap

---- Real-time Memory Report at c_bands before calling an iterative solver
           203 MiB given to the printing process from OS
             0 MiB allocation reported by mallinfo(arena+hblkhd)
           366 MiB available memory on the node where the printing process lives
------------------
     ethr =  8.76E-10,  avg # of iterations =  2.0

     negative rho (up, down):  1.735E-01 0.000E+00

     total cpu time spent up to now is        5.9 secs

     total energy              =      -2.29948439 Ry
     estimated scf accuracy    <       0.00000003 Ry

     iteration # 15     ecut=    15.00 Ry     beta= 0.70
     Davidson diagonalization with overlap

---- Real-time Memory Report at c_bands before calling an iterative solver
           203 MiB given to the printing process from OS
             0 MiB allocation reported by mallinfo(arena+hblkhd)
           366 MiB available memory on the node where the printing process lives
------------------
     ethr =  8.76E-10,  avg # of iterations =  4.0

     negative rho (up, down):  1.735E-01 0.000E+00

     total cpu time spent up to now is        6.3 secs

     End of self-consistent calculation

          k =-0.5000-0.5000-0.5000 ( 26344 PWs)   bands (ev):

   -10.5991  -1.4611

     occupation numbers 
     1.0000   0.0000

     highest occupied, lowest unoccupied level (ev):   -10.5991   -1.4611

!    total energy              =      -2.29949182 Ry
     estimated scf accuracy    <          5.9E-09 Ry

     The total energy is the sum of the following terms:
     one-electron contribution =      -4.17556320 Ry
     hartree contribution      =       2.24460663 Ry
     xc contribution           =      -1.38312160 Ry
     ewald contribution        =       1.01458635 Ry

     convergence has been achieved in  15 iterations

     Forces acting on atoms (cartesian axes, Ry/au):

     atom    1 type  1   force =     0.04583010    0.00000000    0.00000000
     atom    2 type  1   force =    -0.04583010    0.00000000    0.00000000
     The non-local contrib.  to forces
     atom    1 type  1   force =     0.11675077    0.00000000    0.00000000
     atom    2 type  1   force =    -0.12100973    0.00000000    0.00000000
     The ionic contribution  to forces
     atom    1 type  1   force =    -0.96917922   -0.00000000   -0.00000000
     atom    2 type  1   force =     0.96917922   -0.00000000   -0.00000000
     The local contribution  to forces
     atom    1 type  1   force =     0.89588152    0.00000000    0.00000000
     atom    2 type  1   force =    -0.89571683    0.00000000    0.00000000
     The core correction contribution to forces
     atom    1 type  1   force =     0.00000000    0.00000000    0.00000000
     atom    2 type  1   force =     0.00000000    0.00000000    0.00000000
     The Hubbard contrib.    to forces
     atom    1 type  1   force =     0.00000000    0.00000000    0.00000000
     atom    2 type  1   force =     0.00000000    0.00000000    0.00000000
     The SCF correction term to forces
     atom    1 type  1   force =     0.00011058   -0.00000000    0.00000000
     atom    2 type  1   force =    -0.00054919   -0.00000000    0.00000000

     Total force =     0.064814     Total SCF correction =     0.000560

     BFGS Geometry Optimization
     Energy error            =      0.0E+00 Ry
     Gradient error          =      4.6E-02 Ry/Bohr

     number of scf cycles    =   1
     number of bfgs steps    =   0

     energy             new  =      -2.2994918212 Ry

     new trust radius        =       0.0458300954 bohr
     new conv_thr            =       0.0000000100 Ry


ATOMIC_POSITIONS (angstrom)
H             0.0242522420        0.0000000000        0.0000000000
H             0.7357477580        0.0000000000        0.0000000000



     Writing config-only to output data dir ./.save/
     NEW-OLD atomic charge density approx. for the potential

     negative rho (up, down):  1.728E-01 0.000E+00

     total cpu time spent up to now is        6.7 secs

     Self-consistent Calculation

     iteration #  1     ecut=    15.00 Ry     beta= 0.70
     Davidson diagonalization with overlap

---- Real-time Memory Report at c_bands before calling an iterative solver
           207 MiB given to the printing process from OS
             0 MiB allocation reported by mallinfo(arena+hblkhd)
           472 MiB available memory on the node where the printing process lives
------------------
     ethr =  1.00E-06,  avg # of iterations =  7.0

     negative rho (up, down):  1.817E-01 0.000E+00

     total cpu time spent up to now is        7.1 secs

     total energy              =      -2.29696615 Ry
     estimated scf accuracy    <       0.00067914 Ry

     iteration #  2     ecut=    15.00 Ry     beta= 0.70
     Davidson diagonalization with overlap

---- Real-time Memory Report at c_bands before calling an iterative solver
           207 MiB given to the printing process from OS
             0 MiB allocation reported by mallinfo(arena+hblkhd)
           414 MiB available memory on the node where the printing process lives
------------------
     ethr =  3.40E-05,  avg # of iterations =  1.0

     negative rho (up, down):  1.841E-01 0.000E+00

     total cpu time spent up to now is        7.5 secs

     total energy              =      -2.29563744 Ry
     estimated scf accuracy    <       0.00000962 Ry

     iteration #  3     ecut=    15.00 Ry     beta= 0.70
     Davidson diagonalization with overlap

---- Real-time Memory Report at c_bands before calling an iterative solver
           207 MiB given to the printing process from OS
             0 MiB allocation reported by mallinfo(arena+hblkhd)
           408 MiB available memory on the node where the printing process lives
------------------
     ethr =  4.81E-07,  avg # of iterations =  4.0

     negative rho (up, down):  1.840E-01 0.000E+00

     total cpu time spent up to now is        7.9 secs

     total energy              =      -2.29570704 Ry
     estimated scf accuracy    <       0.00000275 Ry

     iteration #  4     ecut=    15.00 Ry     beta= 0.70
     Davidson diagonalization with overlap

---- Real-time Memory Report at c_bands before calling an iterative solver
           207 MiB given to the printing process from OS
             0 MiB allocation reported by mallinfo(arena+hblkhd)
           402 MiB available memory on the node where the printing process lives
------------------
     ethr =  1.38E-07,  avg # of iterations =  3.0

     negative rho (up, down):  1.843E-01 0.000E+00

     total cpu time spent up to now is        8.3 secs

     total energy              =      -2.29551466 Ry
     estimated scf accuracy    <       0.00000053 Ry

     iteration #  5     ecut=    15.00 Ry     beta= 0.70
     Davidson diagonalization with overlap

---- Real-time Memory Report at c_bands before calling an iterative solver
           207 MiB given to the printing process from OS
             0 MiB allocation reported by mallinfo(arena+hblkhd)
           395 MiB available memory on the node where the printing process lives
------------------
     ethr =  2.67E-08,  avg # of iterations =  2.0

     negative rho (up, down):  1.844E-01 0.000E+00

     total cpu time spent up to now is        8.7 secs

     total energy              =      -2.29549995 Ry
     estimated scf accuracy    <       0.00000015 Ry

     iteration #  6     ecut=    15.00 Ry     beta= 0.70
     Davidson diagonalization with overlap

---- Real-time Memory Report at c_bands before calling an iterative solver
           207 MiB given to the printing process from OS
             0 MiB allocation reported by mallinfo(arena+hblkhd)
           389 MiB available memory on the node where the printing process lives
------------------
     ethr =  7.37E-09,  avg # of iterations =  3.0

     negative rho (up, down):  1.844E-01 0.000E+00

     total cpu time spent up to now is        9.0 secs

     End of self-consistent calculation

          k =-0.5000-0.5000-0.5000 ( 26344 PWs)   bands (ev):

   -10.8619  -1.4511

     occupation numbers 
     1.0000   0.0000

     highest occupied, lowest unoccupied level (ev):   -10.8619   -1.4511

!    total energy              =      -2.29549621 Ry
     estimated scf accuracy    <          5.1E-09 Ry

     The total energy is the sum of the following terms:
     one-electron contribution =      -4.30192207 Ry
     hartree contribution      =       2.31128178 Ry
     xc contribution           =      -1.41433767 Ry
     ewald contribution        =       1.10948175 Ry

     convergence has been achieved in   6 iterations

     Forces acting on atoms (cartesian axes, Ry/au):

     atom    1 type  1   force =     0.00236161    0.00000000    0.00000000
     atom    2 type  1   force =    -0.00236161    0.00000000    0.00000000
     The non-local contrib.  to forces
     atom    1 type  1   force =     0.16143013    0.00000000    0.00000000
     atom    2 type  1   force =    -0.16770733    0.00000000    0.00000000
     The ionic contribution  to forces
     atom    1 type  1   force =    -1.10591857    0.00000000   -0.00000000
     atom    2 type  1   force =     1.10591857    0.00000000   -0.00000000
     The local contribution  to forces
     atom    1 type  1   force =     0.94411186    0.00000000    0.00000000
     atom    2 type  1   force =    -0.94309705    0.00000000    0.00000000
     The core correction contribution to forces
     atom    1 type  1   force =     0.00000000    0.00000000    0.00000000
     atom    2 type  1   force =     0.00000000    0.00000000    0.00000000
     The Hubbard contrib.    to forces
     atom    1 type  1   force =     0.00000000    0.00000000    0.00000000
     atom    2 type  1   force =     0.00000000    0.00000000    0.00000000
     The SCF correction term to forces
     atom    1 type  1   force =     0.00008703    0.00000000   -0.00000000
     atom    2 type  1   force =    -0.00012695   -0.00000000    0.00000000

     Total force =     0.003340     Total SCF correction =     0.000154
     Energy error            =      4.0E-03 Ry
     Gradient error          =      2.4E-03 Ry/Bohr

     number of scf cycles    =   2
     number of bfgs steps    =   1

     energy             old  =      -2.2994918212 Ry
     energy             new  =      -2.2954962091 Ry

     CASE: energy            _new > energy            _old

     new trust radius        =       0.0117443436 bohr
     new conv_thr            =       0.0000000100 Ry


ATOMIC_POSITIONS (angstrom)
H             0.0062148390        0.0000000000        0.0000000000
H             0.7537851610        0.0000000000        0.0000000000



     Writing config-only to output data dir ./.save/
     NEW-OLD atomic charge density approx. for the potential

     negative rho (up, down):  1.829E-01 0.000E+00

     total cpu time spent up to now is        9.4 secs

     Self-consistent Calculation

     iteration #  1     ecut=    15.00 Ry     beta= 0.70
     Davidson diagonalization with overlap

---- Real-time Memory Report at c_bands before calling an iterative solver
           207 MiB given to the printing process from OS
             0 MiB allocation reported by mallinfo(arena+hblkhd)
           470 MiB available memory on the node where the printing process lives
------------------
     ethr =  1.00E-06,  avg # of iterations =  5.0

     negative rho (up, down):  1.770E-01 0.000E+00

     total cpu time spent up to now is        9.9 secs

     total energy              =      -2.29842469 Ry
     estimated scf accuracy    <       0.00038146 Ry

     iteration #  2     ecut=    15.00 Ry     beta= 0.70
     Davidson diagonalization with overlap

---- Real-time Memory Report at c_bands before calling an iterative solver
           207 MiB given to the printing process from OS
             0 MiB allocation reported by mallinfo(arena+hblkhd)
           413 MiB available memory on the node where the printing process lives
------------------
     ethr =  1.91E-05,  avg # of iterations =  2.0

     negative rho (up, down):  1.759E-01 0.000E+00

     total cpu time spent up to now is       10.3 secs

     total energy              =      -2.29915558 Ry
     estimated scf accuracy    <       0.00000413 Ry

     iteration #  3     ecut=    15.00 Ry     beta= 0.70
     Davidson diagonalization with overlap

---- Real-time Memory Report at c_bands before calling an iterative solver
           207 MiB given to the printing process from OS
             0 MiB allocation reported by mallinfo(arena+hblkhd)
           407 MiB available memory on the node where the printing process lives
------------------
     ethr =  2.06E-07,  avg # of iterations =  9.0

     negative rho (up, down):  1.757E-01 0.000E+00

     total cpu time spent up to now is       10.7 secs

     total energy              =      -2.29928648 Ry
     estimated scf accuracy    <       0.00000018 Ry

     iteration #  4     ecut=    15.00 Ry     beta= 0.70
     Davidson diagonalization with overlap

---- Real-time Memory Report at c_bands before calling an iterative solver
           207 MiB given to the printing process from OS
             0 MiB allocation reported by mallinfo(arena+hblkhd)
           400 MiB available memory on the node where the printing process lives
------------------
     ethr =  8.84E-09,  avg # of iterations =  3.0

     negative rho (up, down):  1.757E-01 0.000E+00

     total cpu time spent up to now is       11.1 secs

     total energy              =      -2.29929150 Ry
     estimated scf accuracy    <       0.00000006 Ry

     iteration #  5     ecut=    15.00 Ry     beta= 0.70
     Davidson diagonalization with overlap

---- Real-time Memory Report at c_bands before calling an iterative solver
           207 MiB given to the printing process from OS
             0 MiB allocation reported by mallinfo(arena+hblkhd)
           394 MiB available memory on the node where the printing process lives
------------------
     ethr =  3.06E-09,  avg # of iterations =  2.0

     negative rho (up, down):  1.757E-01 0.000E+00

     total cpu time spent up to now is       11.4 secs

     End of self-consistent calculation

          k =-0.5000-0.5000-0.5000 ( 26344 PWs)   bands (ev):

   -10.6641  -1.4640

     occupation numbers 
     1.0000   0.0000

     highest occupied, lowest unoccupied level (ev):   -10.6641   -1.4640

!    total energy              =      -2.29930335 Ry
     estimated scf accuracy    <          8.9E-09 Ry

     The total energy is the sum of the following terms:
     one-electron contribution =      -4.20722771 Ry
     hartree contribution      =       2.26120296 Ry
     xc contribution           =      -1.39100848 Ry
     ewald contribution        =       1.03772986 Ry

     convergence has been achieved in   5 iterations

     Forces acting on atoms (cartesian axes, Ry/au):

     atom    1 type  1   force =     0.03369958    0.00000000    0.00000000
     atom    2 type  1   force =    -0.03369958    0.00000000    0.00000000
     The non-local contrib.  to forces
     atom    1 type  1   force =     0.12447652    0.00000000    0.00000000
     atom    2 type  1   force =    -0.13028962    0.00000000    0.00000000
     The ionic contribution  to forces
     atom    1 type  1   force =    -1.00169825    0.00000000   -0.00000000
     atom    2 type  1   force =     1.00169825    0.00000000   -0.00000000
     The local contribution  to forces
     atom    1 type  1   force =     0.90806974    0.00000000    0.00000000
     atom    2 type  1   force =    -0.90816866    0.00000000    0.00000000
     The core correction contribution to forces
     atom    1 type  1   force =     0.00000000    0.00000000    0.00000000
     atom    2 type  1   force =     0.00000000    0.00000000    0.00000000
     The Hubbard contrib.    to forces
     atom    1 type  1   force =     0.00000000    0.00000000    0.00000000
     atom    2 type  1   force =     0.00000000    0.00000000    0.00000000
     The SCF correction term to forces
     atom    1 type  1   force =     0.00011078    0.00000000    0.00000000
     atom    2 type  1   force =     0.00031966    0.00000000    0.00000000

     Total force =     0.047658     Total SCF correction =     0.000338
     Energy error            =      1.9E-04 Ry
     Gradient error          =      3.4E-02 Ry/Bohr

     number of scf cycles    =   3
     number of bfgs steps    =   1

     energy             old  =      -2.2994918212 Ry
     energy             new  =      -2.2993033545 Ry

     CASE: energy            _new > energy            _old

     new trust radius        =       0.0049972723 bohr
     new conv_thr            =       0.0000000100 Ry


ATOMIC_POSITIONS (angstrom)
H             0.0026444426        0.0000000000        0.0000000000
H             0.7573555574        0.0000000000        0.0000000000



     Writing config-only to output data dir ./.save/
     NEW-OLD atomic charge density approx. for the potential

     negative rho (up, down):  1.757E-01 0.000E+00

     total cpu time spent up to now is       11.8 secs

     Self-consistent Calculation

     iteration #  1     ecut=    15.00 Ry     beta= 0.70
     Davidson diagonalization with overlap

---- Real-time Memory Report at c_bands before calling an iterative solver
           207 MiB given to the printing process from OS
             0 MiB allocation reported by mallinfo(arena+hblkhd)
           470 MiB available memory on the node where the printing process lives
------------------
     ethr =  1.00E-06,  avg # of iterations =  3.0

     negative rho (up, down):  1.747E-01 0.000E+00

     total cpu time spent up to now is       12.2 secs

     total energy              =      -2.29933837 Ry
     estimated scf accuracy    <       0.00001162 Ry

     iteration #  2     ecut=    15.00 Ry     beta= 0.70
     Davidson diagonalization with overlap

---- Real-time Memory Report at c_bands before calling an iterative solver
           207 MiB given to the printing process from OS
             0 MiB allocation reported by mallinfo(arena+hblkhd)
           413 MiB available memory on the node where the printing process lives
------------------
     ethr =  5.81E-07,  avg # of iterations =  2.0

     negative rho (up, down):  1.745E-01 0.000E+00

     total cpu time spent up to now is       12.6 secs

     total energy              =      -2.29946463 Ry
     estimated scf accuracy    <       0.00000019 Ry

     iteration #  3     ecut=    15.00 Ry     beta= 0.70
     Davidson diagonalization with overlap

---- Real-time Memory Report at c_bands before calling an iterative solver
           207 MiB given to the printing process from OS
             0 MiB allocation reported by mallinfo(arena+hblkhd)
           407 MiB available memory on the node where the printing process lives
------------------
     ethr =  9.26E-09,  avg # of iterations =  2.0

     negative rho (up, down):  1.744E-01 0.000E+00

     total cpu time spent up to now is       12.9 secs

     End of self-consistent calculation

          k =-0.5000-0.5000-0.5000 ( 26344 PWs)   bands (ev):

   -10.6236  -1.4513

     occupation numbers 
     1.0000   0.0000

     highest occupied, lowest unoccupied level (ev):   -10.6236   -1.4513

!    total energy              =      -2.29952630 Ry
     estimated scf accuracy    <          7.5E-09 Ry

     The total energy is the sum of the following terms:
     one-electron contribution =      -4.18917583 Ry
     hartree contribution      =       2.25201112 Ry
     xc contribution           =      -1.38670238 Ry
     ewald contribution        =       1.02434078 Ry

     convergence has been achieved in   3 iterations

     Forces acting on atoms (cartesian axes, Ry/au):

     atom    1 type  1   force =     0.04080102    0.00000000    0.00000000
     atom    2 type  1   force =    -0.04080102    0.00000000    0.00000000
     The non-local contrib.  to forces
     atom    1 type  1   force =     0.12125987    0.00000000    0.00000000
     atom    2 type  1   force =    -0.12426464    0.00000000    0.00000000
     The ionic contribution  to forces
     atom    1 type  1   force =    -0.98281997    0.00000000   -0.00000000
     atom    2 type  1   force =     0.98281997   -0.00000000   -0.00000000
     The local contribution  to forces
     atom    1 type  1   force =     0.90112098    0.00000000    0.00000000
     atom    2 type  1   force =    -0.90119972    0.00000000    0.00000000
     The core correction contribution to forces
     atom    1 type  1   force =     0.00000000    0.00000000    0.00000000
     atom    2 type  1   force =     0.00000000    0.00000000    0.00000000
     The Hubbard contrib.    to forces
     atom    1 type  1   force =     0.00000000    0.00000000    0.00000000
     atom    2 type  1   force =     0.00000000    0.00000000    0.00000000
     The SCF correction term to forces
     atom    1 type  1   force =    -0.00011222   -0.00000000    0.00000000
     atom    2 type  1   force =     0.00049103   -0.00000000   -0.00000000

     Total force =     0.057701     Total SCF correction =     0.000504
     Energy error            =      3.4E-05 Ry
     Gradient error          =      4.1E-02 Ry/Bohr

     number of scf cycles    =   4
     number of bfgs steps    =   1

     energy             old  =      -2.2994918212 Ry
     energy             new  =      -2.2995263012 Ry

     CASE: energy            _new < energy            _old

     new trust radius        =       0.0074959085 bohr
     new conv_thr            =            1.0E-10 Ry


ATOMIC_POSITIONS (angstrom)
H             0.0066111066        0.0000000000        0.0000000000
H             0.7533888934        0.0000000000        0.0000000000



     Writing config-only to output data dir ./.save/
     NEW-OLD atomic charge density approx. for the potential

     negative rho (up, down):  1.743E-01 0.000E+00

     total cpu time spent up to now is       13.3 secs

     Self-consistent Calculation

     iteration #  1     ecut=    15.00 Ry     beta= 0.70
     Davidson diagonalization with overlap

---- Real-time Memory Report at c_bands before calling an iterative solver
           207 MiB given to the printing process from OS
             0 MiB allocation reported by mallinfo(arena+hblkhd)
           470 MiB available memory on the node where the printing process lives
------------------
     ethr =  1.00E-06,  avg # of iterations =  3.0

     negative rho (up, down):  1.756E-01 0.000E+00

     total cpu time spent up to now is       13.7 secs

     total energy              =      -2.29944349 Ry
     estimated scf accuracy    <       0.00001681 Ry

     iteration #  2     ecut=    15.00 Ry     beta= 0.70
     Davidson diagonalization with overlap

---- Real-time Memory Report at c_bands before calling an iterative solver
           207 MiB given to the printing process from OS
             0 MiB allocation reported by mallinfo(arena+hblkhd)
           413 MiB available memory on the node where the printing process lives
------------------
     ethr =  8.40E-07,  avg # of iterations =  3.0

     negative rho (up, down):  1.757E-01 0.000E+00

     total cpu time spent up to now is       14.1 secs

     total energy              =      -2.29933900 Ry
     estimated scf accuracy    <       0.00000018 Ry

     iteration #  3     ecut=    15.00 Ry     beta= 0.70
     Davidson diagonalization with overlap

---- Real-time Memory Report at c_bands before calling an iterative solver
           207 MiB given to the printing process from OS
             0 MiB allocation reported by mallinfo(arena+hblkhd)
           407 MiB available memory on the node where the printing process lives
------------------
     ethr =  9.14E-09,  avg # of iterations =  3.0

     negative rho (up, down):  1.758E-01 0.000E+00

     total cpu time spent up to now is       14.5 secs

     total energy              =      -2.29928688 Ry
     estimated scf accuracy    <       0.00000008 Ry

     iteration #  4     ecut=    15.00 Ry     beta= 0.70
     Davidson diagonalization with overlap

---- Real-time Memory Report at c_bands before calling an iterative solver
           207 MiB given to the printing process from OS
             0 MiB allocation reported by mallinfo(arena+hblkhd)
           400 MiB available memory on the node where the printing process lives
------------------
     ethr =  4.19E-09,  avg # of iterations =  3.0

     negative rho (up, down):  1.758E-01 0.000E+00

     total cpu time spent up to now is       14.9 secs

     total energy              =      -2.29928717 Ry
     estimated scf accuracy    <          3.4E-09 Ry

     iteration #  5     ecut=    15.00 Ry     beta= 0.70
     Davidson diagonalization with overlap

---- Real-time Memory Report at c_bands before calling an iterative solver
           207 MiB given to the printing process from OS
             0 MiB allocation reported by mallinfo(arena+hblkhd)
           394 MiB available memory on the node where the printing process lives
------------------
     ethr =  1.70E-10,  avg # of iterations =  3.0

     negative rho (up, down):  1.758E-01 0.000E+00

     total cpu time spent up to now is       15.3 secs

     total energy              =      -2.29928747 Ry
     estimated scf accuracy    <          1.9E-09 Ry

     iteration #  6     ecut=    15.00 Ry     beta= 0.70
     Davidson diagonalization with overlap

---- Real-time Memory Report at c_bands before calling an iterative solver
           207 MiB given to the printing process from OS
             0 MiB allocation reported by mallinfo(arena+hblkhd)
           387 MiB available memory on the node where the printing process lives
------------------
     ethr =  9.73E-11,  avg # of iterations =  3.0

     negative rho (up, down):  1.758E-01 0.000E+00

     total cpu time spent up to now is       15.6 secs

     total energy              =      -2.29927320 Ry
     estimated scf accuracy    <          7.3E-10 Ry

     iteration #  7     ecut=    15.00 Ry     beta= 0.70
     Davidson diagonalization with overlap

---- Real-time Memory Report at c_bands before calling an iterative solver
           207 MiB given to the printing process from OS
             0 MiB allocation reported by mallinfo(arena+hblkhd)
           381 MiB available memory on the node where the printing process lives
------------------
     ethr =  3.63E-11,  avg # of iterations =  4.0

     negative rho (up, down):  1.758E-01 0.000E+00

     total cpu time spent up to now is       16.0 secs

     total energy              =      -2.29927690 Ry
     estimated scf accuracy    <          6.9E-09 Ry

     iteration #  8     ecut=    15.00 Ry     beta= 0.70
     Davidson diagonalization with overlap

---- Real-time Memory Report at c_bands before calling an iterative solver
           207 MiB given to the printing process from OS
             0 MiB allocation reported by mallinfo(arena+hblkhd)
           374 MiB available memory on the node where the printing process lives
------------------
     ethr =  3.63E-11,  avg # of iterations =  4.0

     negative rho (up, down):  1.758E-01 0.000E+00

     total cpu time spent up to now is       16.5 secs

     total energy              =      -2.29928379 Ry
     estimated scf accuracy    <          2.3E-09 Ry

     iteration #  9     ecut=    15.00 Ry     beta= 0.70
     Davidson diagonalization with overlap

---- Real-time Memory Report at c_bands before calling an iterative solver
           207 MiB given to the printing process from OS
             0 MiB allocation reported by mallinfo(arena+hblkhd)
           368 MiB available memory on the node where the printing process lives
------------------
     ethr =  3.63E-11,  avg # of iterations =  4.0

     negative rho (up, down):  1.758E-01 0.000E+00

     total cpu time spent up to now is       16.9 secs

     total energy              =      -2.29928177 Ry
     estimated scf accuracy    <          7.7E-10 Ry

     iteration # 10     ecut=    15.00 Ry     beta= 0.70
     Davidson diagonalization with overlap

---- Real-time Memory Report at c_bands before calling an iterative solver
           208 MiB given to the printing process from OS
             0 MiB allocation reported by mallinfo(arena+hblkhd)
           362 MiB available memory on the node where the printing process lives
------------------
     ethr =  3.63E-11,  avg # of iterations =  4.0

     negative rho (up, down):  1.758E-01 0.000E+00

     total cpu time spent up to now is       17.3 secs

     total energy              =      -2.29927553 Ry
     estimated scf accuracy    <          9.8E-10 Ry

     iteration # 11     ecut=    15.00 Ry     beta= 0.70
     Davidson diagonalization with overlap

---- Real-time Memory Report at c_bands before calling an iterative solver
           208 MiB given to the printing process from OS
             0 MiB allocation reported by mallinfo(arena+hblkhd)
           362 MiB available memory on the node where the printing process lives
------------------
     ethr =  3.63E-11,  avg # of iterations =  4.0

     negative rho (up, down):  1.758E-01 0.000E+00

     total cpu time spent up to now is       17.7 secs

     total energy              =      -2.29928165 Ry
     estimated scf accuracy    <          1.6E-09 Ry

     iteration # 12     ecut=    15.00 Ry     beta= 0.70
     Davidson diagonalization with overlap

---- Real-time Memory Report at c_bands before calling an iterative solver
           208 MiB given to the printing process from OS
             0 MiB allocation reported by mallinfo(arena+hblkhd)
           362 MiB available memory on the node where the printing process lives
------------------
     ethr =  3.63E-11,  avg # of iterations =  4.0

     negative rho (up, down):  1.758E-01 0.000E+00

     total cpu time spent up to now is       18.1 secs

     total energy              =      -2.29928005 Ry
     estimated scf accuracy    <          1.1E-09 Ry

     iteration # 13     ecut=    15.00 Ry     beta= 0.70
     Davidson diagonalization with overlap

---- Real-time Memory Report at c_bands before calling an iterative solver
           208 MiB given to the printing process from OS
             0 MiB allocation reported by mallinfo(arena+hblkhd)
           362 MiB available memory on the node where the printing process lives
------------------
     ethr =  3.63E-11,  avg # of iterations =  4.0

     negative rho (up, down):  1.758E-01 0.000E+00

     total cpu time spent up to now is       18.5 secs

     total energy              =      -2.29928222 Ry
     estimated scf accuracy    <          2.6E-09 Ry

     iteration # 14     ecut=    15.00 Ry     beta= 0.70
     Davidson diagonalization with overlap

---- Real-time Memory Report at c_bands before calling an iterative solver
           208 MiB given to the printing process from OS
             0 MiB allocation reported by mallinfo(arena+hblkhd)
           362 MiB available memory on the node where the printing process lives
------------------
     ethr =  3.63E-11,  avg # of iterations =  4.0

     negative rho (up, down):  1.758E-01 0.000E+00

     total cpu time spent up to now is       18.9 secs

     total energy              =      -2.29928437 Ry
     estimated scf accuracy    <          4.7E-10 Ry

     iteration # 15     ecut=    15.00 Ry     beta= 0.70
     Davidson diagonalization with overlap

---- Real-time Memory Report at c_bands before calling an iterative solver
           208 MiB given to the printing process from OS
             0 MiB allocation reported by mallinfo(arena+hblkhd)
           362 MiB available memory on the node where the printing process lives
------------------
     ethr =  2.37E-11,  avg # of iterations =  4.0

     negative rho (up, down):  1.758E-01 0.000E+00

     total cpu time spent up to now is       19.4 secs

     total energy              =      -2.29928245 Ry
     estimated scf accuracy    <          1.9E-09 Ry

     iteration # 16     ecut=    15.00 Ry     beta= 0.70
     Davidson diagonalization with overlap

---- Real-time Memory Report at c_bands before calling an iterative solver
           208 MiB given to the printing process from OS
             0 MiB allocation reported by mallinfo(arena+hblkhd)
           361 MiB available memory on the node where the printing process lives
------------------
     ethr =  2.37E-11,  avg # of iterations =  4.0

     negative rho (up, down):  1.758E-01 0.000E+00

     total cpu time spent up to now is       19.8 secs

     total energy              =      -2.29927982 Ry
     estimated scf accuracy    <          4.5E-10 Ry

     iteration # 17     ecut=    15.00 Ry     beta= 0.70
     Davidson diagonalization with overlap

---- Real-time Memory Report at c_bands before calling an iterative solver
           208 MiB given to the printing process from OS
             0 MiB allocation reported by mallinfo(arena+hblkhd)
           361 MiB available memory on the node where the printing process lives
------------------
     ethr =  2.23E-11,  avg # of iterations =  4.0

     negative rho (up, down):  1.758E-01 0.000E+00

     total cpu time spent up to now is       20.2 secs

     total energy              =      -2.29928020 Ry
     estimated scf accuracy    <          2.6E-09 Ry

     iteration # 18     ecut=    15.00 Ry     beta= 0.70
     Davidson diagonalization with overlap

---- Real-time Memory Report at c_bands before calling an iterative solver
           208 MiB given to the printing process from OS
             0 MiB allocation reported by mallinfo(arena+hblkhd)
           361 MiB available memory on the node where the printing process lives
------------------
     ethr =  2.23E-11,  avg # of iterations =  2.0

     negative rho (up, down):  1.758E-01 0.000E+00

     total cpu time spent up to now is       20.6 secs

     total energy              =      -2.29928021 Ry
     estimated scf accuracy    <          2.7E-09 Ry

     iteration # 19     ecut=    15.00 Ry     beta= 0.70
     Davidson diagonalization with overlap

---- Real-time Memory Report at c_bands before calling an iterative solver
           208 MiB given to the printing process from OS
             0 MiB allocation reported by mallinfo(arena+hblkhd)
           361 MiB available memory on the node where the printing process lives
------------------
     ethr =  2.23E-11,  avg # of iterations =  1.0

     negative rho (up, down):  1.758E-01 0.000E+00

     total cpu time spent up to now is       20.9 secs

     total energy              =      -2.29928021 Ry
     estimated scf accuracy    <          2.7E-09 Ry

     iteration # 20     ecut=    15.00 Ry     beta= 0.70
     Davidson diagonalization with overlap

---- Real-time Memory Report at c_bands before calling an iterative solver
           208 MiB given to the printing process from OS
             0 MiB allocation reported by mallinfo(arena+hblkhd)
           361 MiB available memory on the node where the printing process lives
------------------
     ethr =  2.23E-11,  avg # of iterations =  1.0

     negative rho (up, down):  1.758E-01 0.000E+00

     total cpu time spent up to now is       21.3 secs

     total energy              =      -2.29927490 Ry
     estimated scf accuracy    <          2.7E-09 Ry

     iteration # 21     ecut=    15.00 Ry     beta= 0.70
     Davidson diagonalization with overlap

---- Real-time Memory Report at c_bands before calling an iterative solver
           208 MiB given to the printing process from OS
             0 MiB allocation reported by mallinfo(arena+hblkhd)
           361 MiB available memory on the node where the printing process lives
------------------
     ethr =  2.23E-11,  avg # of iterations =  4.0

     negative rho (up, down):  1.758E-01 0.000E+00

     total cpu time spent up to now is       21.7 secs

     total energy              =      -2.29928250 Ry
     estimated scf accuracy    <          1.7E-09 Ry

     iteration # 22     ecut=    15.00 Ry     beta= 0.70
     Davidson diagonalization with overlap

---- Real-time Memory Report at c_bands before calling an iterative solver
           208 MiB given to the printing process from OS
             0 MiB allocation reported by mallinfo(arena+hblkhd)
           361 MiB available memory on the node where the printing process lives
------------------
     ethr =  2.23E-11,  avg # of iterations =  4.0

     negative rho (up, down):  1.758E-01 0.000E+00

     total cpu time spent up to now is       22.1 secs

     total energy              =      -2.29928254 Ry
     estimated scf accuracy    <          4.7E-10 Ry

     iteration # 23     ecut=    15.00 Ry     beta= 0.70
     Davidson diagonalization with overlap

---- Real-time Memory Report at c_bands before calling an iterative solver
           208 MiB given to the printing process from OS
             0 MiB allocation reported by mallinfo(arena+hblkhd)
           361 MiB available memory on the node where the printing process lives
------------------
     ethr =  2.23E-11,  avg # of iterations =  1.0

     negative rho (up, down):  1.758E-01 0.000E+00

     total cpu time spent up to now is       22.5 secs

     total energy              =      -2.29928254 Ry
     estimated scf accuracy    <          4.5E-10 Ry

     iteration # 24     ecut=    15.00 Ry     beta= 0.70
     Davidson diagonalization with overlap

---- Real-time Memory Report at c_bands before calling an iterative solver
           208 MiB given to the printing process from OS
             0 MiB allocation reported by mallinfo(arena+hblkhd)
           361 MiB available memory on the node where the printing process lives
------------------
     ethr =  2.23E-11,  avg # of iterations =  1.0

     negative rho (up, down):  1.758E-01 0.000E+00

     total cpu time spent up to now is       22.9 secs

     total energy              =      -2.29927842 Ry
     estimated scf accuracy    <          4.5E-10 Ry

     iteration # 25     ecut=    15.00 Ry     beta= 0.70
     Davidson diagonalization with overlap

---- Real-time Memory Report at c_bands before calling an iterative solver
           208 MiB given to the printing process from OS
             0 MiB allocation reported by mallinfo(arena+hblkhd)
           361 MiB available memory on the node where the printing process lives
------------------
     ethr =  2.23E-11,  avg # of iterations =  4.0

     negative rho (up, down):  1.758E-01 0.000E+00

     total cpu time spent up to now is       23.3 secs

     total energy              =      -2.29927633 Ry
     estimated scf accuracy    <          4.9E-09 Ry

     iteration # 26     ecut=    15.00 Ry     beta= 0.70
     Davidson diagonalization with overlap

---- Real-time Memory Report at c_bands before calling an iterative solver
           208 MiB given to the printing process from OS
             0 MiB allocation reported by mallinfo(arena+hblkhd)
           361 MiB available memory on the node where the printing process lives
------------------
     ethr =  2.23E-11,  avg # of iterations =  2.0

     negative rho (up, down):  1.758E-01 0.000E+00

     total cpu time spent up to now is       23.7 secs

     total energy              =      -2.29928453 Ry
     estimated scf accuracy    <          2.3E-09 Ry

     iteration # 27     ecut=    15.00 Ry     beta= 0.70
     Davidson diagonalization with overlap

---- Real-time Memory Report at c_bands before calling an iterative solver
           208 MiB given to the printing process from OS
             0 MiB allocation reported by mallinfo(arena+hblkhd)
           361 MiB available memory on the node where the printing process lives
------------------
     ethr =  2.23E-11,  avg # of iterations =  4.0

     negative rho (up, down):  1.758E-01 0.000E+00

     total cpu time spent up to now is       24.1 secs

     total energy              =      -2.29928451 Ry
     estimated scf accuracy    <          2.2E-09 Ry

     iteration # 28     ecut=    15.00 Ry     beta= 0.70
     Davidson diagonalization with overlap

---- Real-time Memory Report at c_bands before calling an iterative solver
           208 MiB given to the printing process from OS
             0 MiB allocation reported by mallinfo(arena+hblkhd)
           361 MiB available memory on the node where the printing process lives
------------------
     ethr =  2.23E-11,  avg # of iterations =  1.0

     negative rho (up, down):  1.758E-01 0.000E+00

     total cpu time spent up to now is       24.4 secs

     total energy              =      -2.29927582 Ry
     estimated scf accuracy    <          2.0E-09 Ry

     iteration # 29     ecut=    15.00 Ry     beta= 0.70
     Davidson diagonalization with overlap

---- Real-time Memory Report at c_bands before calling an iterative solver
           208 MiB given to the printing process from OS
             0 MiB allocation reported by mallinfo(arena+hblkhd)
           361 MiB available memory on the node where the printing process lives
------------------
     ethr =  2.23E-11,  avg # of iterations =  4.0

     negative rho (up, down):  1.758E-01 0.000E+00

     total cpu time spent up to now is       24.8 secs

     total energy              =      -2.29927773 Ry
     estimated scf accuracy    <          1.6E-09 Ry

     iteration # 30     ecut=    15.00 Ry     beta= 0.70
     Davidson diagonalization with overlap

---- Real-time Memory Report at c_bands before calling an iterative solver
           208 MiB given to the printing process from OS
             0 MiB allocation reported by mallinfo(arena+hblkhd)
           361 MiB available memory on the node where the printing process lives
------------------
     ethr =  2.23E-11,  avg # of iterations =  4.0

     negative rho (up, down):  1.758E-01 0.000E+00

     total cpu time spent up to now is       25.3 secs

     total energy              =      -2.29927955 Ry
     estimated scf accuracy    <          3.3E-09 Ry

     iteration # 31     ecut=    15.00 Ry     beta= 0.70
     Davidson diagonalization with overlap

---- Real-time Memory Report at c_bands before calling an iterative solver
           208 MiB given to the printing process from OS
             0 MiB allocation reported by mallinfo(arena+hblkhd)
           361 MiB available memory on the node where the printing process lives
------------------
     ethr =  2.23E-11,  avg # of iterations =  3.0

     negative rho (up, down):  1.758E-01 0.000E+00

     total cpu time spent up to now is       25.6 secs

     total energy              =      -2.29927333 Ry
     estimated scf accuracy    <          2.5E-09 Ry

     iteration # 32     ecut=    15.00 Ry     beta= 0.70
     Davidson diagonalization with overlap

---- Real-time Memory Report at c_bands before calling an iterative solver
           208 MiB given to the printing process from OS
             0 MiB allocation reported by mallinfo(arena+hblkhd)
           361 MiB available memory on the node where the printing process lives
------------------
     ethr =  2.23E-11,  avg # of iterations =  4.0

     negative rho (up, down):  1.758E-01 0.000E+00

     total cpu time spent up to now is       26.1 secs

     total energy              =      -2.29927548 Ry
     estimated scf accuracy    <          2.0E-09 Ry

     iteration # 33     ecut=    15.00 Ry     beta= 0.70
     Davidson diagonalization with overlap

---- Real-time Memory Report at c_bands before calling an iterative solver
           208 MiB given to the printing process from OS
             0 MiB allocation reported by mallinfo(arena+hblkhd)
           361 MiB available memory on the node where the printing process lives
------------------
     ethr =  2.23E-11,  avg # of iterations =  4.0

     negative rho (up, down):  1.758E-01 0.000E+00

     total cpu time spent up to now is       26.5 secs

     total energy              =      -2.29927419 Ry
     estimated scf accuracy    <          1.5E-09 Ry

     iteration # 34     ecut=    15.00 Ry     beta= 0.70
     Davidson diagonalization with overlap

---- Real-time Memory Report at c_bands before calling an iterative solver
           208 MiB given to the printing process from OS
             0 MiB allocation reported by mallinfo(arena+hblkhd)
           361 MiB available memory on the node where the printing process lives
------------------
     ethr =  2.23E-11,  avg # of iterations =  4.0

     negative rho (up, down):  1.758E-01 0.000E+00

     total cpu time spent up to now is       26.9 secs

     total energy              =      -2.29927997 Ry
     estimated scf accuracy    <          2.0E-09 Ry

     iteration # 35     ecut=    15.00 Ry     beta= 0.70
     Davidson diagonalization with overlap

---- Real-time Memory Report at c_bands before calling an iterative solver
           208 MiB given to the printing process from OS
             0 MiB allocation reported by mallinfo(arena+hblkhd)
           361 MiB available memory on the node where the printing process lives
------------------
     ethr =  2.23E-11,  avg # of iterations =  4.0

     negative rho (up, down):  1.758E-01 0.000E+00

     total cpu time spent up to now is       27.3 secs

     total energy              =      -2.29928010 Ry
     estimated scf accuracy    <          2.7E-09 Ry

     iteration # 36     ecut=    15.00 Ry     beta= 0.70
     Davidson diagonalization with overlap

---- Real-time Memory Report at c_bands before calling an iterative solver
           208 MiB given to the printing process from OS
             0 MiB allocation reported by mallinfo(arena+hblkhd)
           361 MiB available memory on the node where the printing process lives
------------------
     ethr =  2.23E-11,  avg # of iterations =  1.0

     negative rho (up, down):  1.758E-01 0.000E+00

     total cpu time spent up to now is       27.7 secs

     total energy              =      -2.29928218 Ry
     estimated scf accuracy    <          2.7E-09 Ry

     iteration # 37     ecut=    15.00 Ry     beta= 0.70
     Davidson diagonalization with overlap

---- Real-time Memory Report at c_bands before calling an iterative solver
           208 MiB given to the printing process from OS
             0 MiB allocation reported by mallinfo(arena+hblkhd)
           361 MiB available memory on the node where the printing process lives
------------------
     ethr =  2.23E-11,  avg # of iterations =  4.0

     negative rho (up, down):  1.758E-01 0.000E+00

     total cpu time spent up to now is       28.1 secs

     total energy              =      -2.29927900 Ry
     estimated scf accuracy    <          4.3E-10 Ry

     iteration # 38     ecut=    15.00 Ry     beta= 0.70
     Davidson diagonalization with overlap

---- Real-time Memory Report at c_bands before calling an iterative solver
           208 MiB given to the printing process from OS
             0 MiB allocation reported by mallinfo(arena+hblkhd)
           361 MiB available memory on the node where the printing process lives
------------------
     ethr =  2.16E-11,  avg # of iterations =  4.0

     negative rho (up, down):  1.758E-01 0.000E+00

     total cpu time spent up to now is       28.5 secs

     total energy              =      -2.29927921 Ry
     estimated scf accuracy    <          2.6E-09 Ry

     iteration # 39     ecut=    15.00 Ry     beta= 0.70
     Davidson diagonalization with overlap

---- Real-time Memory Report at c_bands before calling an iterative solver
           208 MiB given to the printing process from OS
             0 MiB allocation reported by mallinfo(arena+hblkhd)
           361 MiB available memory on the node where the printing process lives
------------------
     ethr =  2.16E-11,  avg # of iterations =  2.0

     negative rho (up, down):  1.758E-01 0.000E+00

     total cpu time spent up to now is       28.9 secs

     total energy              =      -2.29928215 Ry
     estimated scf accuracy    <          2.4E-09 Ry

     iteration # 40     ecut=    15.00 Ry     beta= 0.70
     Davidson diagonalization with overlap

---- Real-time Memory Report at c_bands before calling an iterative solver
           208 MiB given to the printing process from OS
             0 MiB allocation reported by mallinfo(arena+hblkhd)
           361 MiB available memory on the node where the printing process lives
------------------
     ethr =  2.16E-11,  avg # of iterations =  4.0

     negative rho (up, down):  1.758E-01 0.000E+00

     total cpu time spent up to now is       29.3 secs

     total energy              =      -2.29927552 Ry
     estimated scf accuracy    <          8.7E-10 Ry

     iteration # 41     ecut=    15.00 Ry     beta= 0.70
     Davidson diagonalization with overlap

---- Real-time Memory Report at c_bands before calling an iterative solver
           208 MiB given to the printing process from OS
             0 MiB allocation reported by mallinfo(arena+hblkhd)
           361 MiB available memory on the node where the printing process lives
------------------
     ethr =  2.16E-11,  avg # of iterations =  4.0

     negative rho (up, down):  1.758E-01 0.000E+00

     total cpu time spent up to now is       29.7 secs

     total energy              =      -2.29927591 Ry
     estimated scf accuracy    <          1.6E-09 Ry

     iteration # 42     ecut=    15.00 Ry     beta= 0.70
     Davidson diagonalization with overlap

---- Real-time Memory Report at c_bands before calling an iterative solver
           208 MiB given to the printing process from OS
             0 MiB allocation reported by mallinfo(arena+hblkhd)
           361 MiB available memory on the node where the printing process lives
------------------
     ethr =  2.16E-11,  avg # of iterations =  1.0

     negative rho (up, down):  1.758E-01 0.000E+00

     total cpu time spent up to now is       30.0 secs

     total energy              =      -2.29927592 Ry
     estimated scf accuracy    <          1.6E-09 Ry

     iteration # 43     ecut=    15.00 Ry     beta= 0.70
     Davidson diagonalization with overlap

---- Real-time Memory Report at c_bands before calling an iterative solver
           208 MiB given to the printing process from OS
             0 MiB allocation reported by mallinfo(arena+hblkhd)
           361 MiB available memory on the node where the printing process lives
------------------
     ethr =  2.16E-11,  avg # of iterations =  1.0

     negative rho (up, down):  1.758E-01 0.000E+00

     total cpu time spent up to now is       30.4 secs

     total energy              =      -2.29927590 Ry
     estimated scf accuracy    <          1.6E-09 Ry

     iteration # 44     ecut=    15.00 Ry     beta= 0.70
     Davidson diagonalization with overlap

---- Real-time Memory Report at c_bands before calling an iterative solver
           208 MiB given to the printing process from OS
             0 MiB allocation reported by mallinfo(arena+hblkhd)
           361 MiB available memory on the node where the printing process lives
------------------
     ethr =  2.16E-11,  avg # of iterations =  1.0

     negative rho (up, down):  1.758E-01 0.000E+00

     total cpu time spent up to now is       30.8 secs

     total energy              =      -2.29927591 Ry
     estimated scf accuracy    <          1.6E-09 Ry

     iteration # 45     ecut=    15.00 Ry     beta= 0.70
     Davidson diagonalization with overlap

---- Real-time Memory Report at c_bands before calling an iterative solver
           208 MiB given to the printing process from OS
             0 MiB allocation reported by mallinfo(arena+hblkhd)
           361 MiB available memory on the node where the printing process lives
------------------
     ethr =  2.16E-11,  avg # of iterations =  1.0

     negative rho (up, down):  1.758E-01 0.000E+00

     total cpu time spent up to now is       31.1 secs

     total energy              =      -2.29928152 Ry
     estimated scf accuracy    <          1.6E-09 Ry

     iteration # 46     ecut=    15.00 Ry     beta= 0.70
     Davidson diagonalization with overlap

---- Real-time Memory Report at c_bands before calling an iterative solver
           208 MiB given to the printing process from OS
             0 MiB allocation reported by mallinfo(arena+hblkhd)
           361 MiB available memory on the node where the printing process lives
------------------
     ethr =  2.16E-11,  avg # of iterations =  4.0

     negative rho (up, down):  1.758E-01 0.000E+00

     total cpu time spent up to now is       31.6 secs

     total energy              =      -2.29928262 Ry
     estimated scf accuracy    <          9.7E-10 Ry

     iteration # 47     ecut=    15.00 Ry     beta= 0.70
     Davidson diagonalization with overlap

---- Real-time Memory Report at c_bands before calling an iterative solver
           208 MiB given to the printing process from OS
             0 MiB allocation reported by mallinfo(arena+hblkhd)
           361 MiB available memory on the node where the printing process lives
------------------
     ethr =  2.16E-11,  avg # of iterations =  4.0

     negative rho (up, down):  1.758E-01 0.000E+00

     total cpu time spent up to now is       32.0 secs

     total energy              =      -2.29927980 Ry
     estimated scf accuracy    <          9.2E-10 Ry

     iteration # 48     ecut=    15.00 Ry     beta= 0.70
     Davidson diagonalization with overlap

---- Real-time Memory Report at c_bands before calling an iterative solver
           208 MiB given to the printing process from OS
             0 MiB allocation reported by mallinfo(arena+hblkhd)
           361 MiB available memory on the node where the printing process lives
------------------
     ethr =  2.16E-11,  avg # of iterations =  4.0

     negative rho (up, down):  1.758E-01 0.000E+00

     total cpu time spent up to now is       32.4 secs

     total energy              =      -2.29928233 Ry
     estimated scf accuracy    <          2.4E-09 Ry

     iteration # 49     ecut=    15.00 Ry     beta= 0.70
     Davidson diagonalization with overlap

---- Real-time Memory Report at c_bands before calling an iterative solver
           208 MiB given to the printing process from OS
             0 MiB allocation reported by mallinfo(arena+hblkhd)
           361 MiB available memory on the node where the printing process lives
------------------
     ethr =  2.16E-11,  avg # of iterations =  4.0

     negative rho (up, down):  1.758E-01 0.000E+00

     total cpu time spent up to now is       32.8 secs

     total energy              =      -2.29928449 Ry
     estimated scf accuracy    <          5.3E-10 Ry

     iteration # 50     ecut=    15.00 Ry     beta= 0.70
     Davidson diagonalization with overlap

---- Real-time Memory Report at c_bands before calling an iterative solver
           208 MiB given to the printing process from OS
             0 MiB allocation reported by mallinfo(arena+hblkhd)
           361 MiB available memory on the node where the printing process lives
------------------
     ethr =  2.16E-11,  avg # of iterations =  4.0

     negative rho (up, down):  1.758E-01 0.000E+00

     total cpu time spent up to now is       33.2 secs

     total energy              =      -2.29928447 Ry
     estimated scf accuracy    <          2.1E-09 Ry

     iteration # 51     ecut=    15.00 Ry     beta= 0.70
     Davidson diagonalization with overlap

---- Real-time Memory Report at c_bands before calling an iterative solver
           208 MiB given to the printing process from OS
             0 MiB allocation reported by mallinfo(arena+hblkhd)
           361 MiB available memory on the node where the printing process lives
------------------
     ethr =  2.16E-11,  avg # of iterations =  1.0

     negative rho (up, down):  1.758E-01 0.000E+00

     total cpu time spent up to now is       33.6 secs

     total energy              =      -2.29928457 Ry
     estimated scf accuracy    <          2.0E-09 Ry

     iteration # 52     ecut=    15.00 Ry     beta= 0.70
     Davidson diagonalization with overlap

---- Real-time Memory Report at c_bands before calling an iterative solver
           208 MiB given to the printing process from OS
             0 MiB allocation reported by mallinfo(arena+hblkhd)
           361 MiB available memory on the node where the printing process lives
------------------
     ethr =  2.16E-11,  avg # of iterations =  1.0

     negative rho (up, down):  1.758E-01 0.000E+00

     total cpu time spent up to now is       33.9 secs

     total energy              =      -2.29928459 Ry
     estimated scf accuracy    <          2.1E-09 Ry

     iteration # 53     ecut=    15.00 Ry     beta= 0.70
     Davidson diagonalization with overlap

---- Real-time Memory Report at c_bands before calling an iterative solver
           208 MiB given to the printing process from OS
             0 MiB allocation reported by mallinfo(arena+hblkhd)
           361 MiB available memory on the node where the printing process lives
------------------
     ethr =  2.16E-11,  avg # of iterations =  1.0

     negative rho (up, down):  1.758E-01 0.000E+00

     total cpu time spent up to now is       34.3 secs

     total energy              =      -2.29928457 Ry
     estimated scf accuracy    <          2.2E-09 Ry

     iteration # 54     ecut=    15.00 Ry     beta= 0.70
     Davidson diagonalization with overlap

---- Real-time Memory Report at c_bands before calling an iterative solver
           208 MiB given to the printing process from OS
             0 MiB allocation reported by mallinfo(arena+hblkhd)
           361 MiB available memory on the node where the printing process lives
------------------
     ethr =  2.16E-11,  avg # of iterations =  1.0

     negative rho (up, down):  1.758E-01 0.000E+00

     total cpu time spent up to now is       34.7 secs

     total energy              =      -2.29927403 Ry
     estimated scf accuracy    <          2.1E-09 Ry

     iteration # 55     ecut=    15.00 Ry     beta= 0.70
     Davidson diagonalization with overlap

---- Real-time Memory Report at c_bands before calling an iterative solver
           208 MiB given to the printing process from OS
             0 MiB allocation reported by mallinfo(arena+hblkhd)
           361 MiB available memory on the node where the printing process lives
------------------
     ethr =  2.16E-11,  avg # of iterations =  4.0

     negative rho (up, down):  1.758E-01 0.000E+00

     total cpu time spent up to now is       35.1 secs

     total energy              =      -2.29927359 Ry
     estimated scf accuracy    <          1.7E-09 Ry

     iteration # 56     ecut=    15.00 Ry     beta= 0.70
     Davidson diagonalization with overlap

---- Real-time Memory Report at c_bands before calling an iterative solver
           208 MiB given to the printing process from OS
             0 MiB allocation reported by mallinfo(arena+hblkhd)
           361 MiB available memory on the node where the printing process lives
------------------
     ethr =  2.16E-11,  avg # of iterations =  2.0

     negative rho (up, down):  1.758E-01 0.000E+00

     total cpu time spent up to now is       35.5 secs

     total energy              =      -2.29927365 Ry
     estimated scf accuracy    <          1.8E-09 Ry

     iteration # 57     ecut=    15.00 Ry     beta= 0.70
     Davidson diagonalization with overlap

---- Real-time Memory Report at c_bands before calling an iterative solver
           208 MiB given to the printing process from OS
             0 MiB allocation reported by mallinfo(arena+hblkhd)
           361 MiB available memory on the node where the printing process lives
------------------
     ethr =  2.16E-11,  avg # of iterations =  2.0

     negative rho (up, down):  1.758E-01 0.000E+00

     total cpu time spent up to now is       35.8 secs

     total energy              =      -2.29927985 Ry
     estimated scf accuracy    <          1.7E-09 Ry

     iteration # 58     ecut=    15.00 Ry     beta= 0.70
     Davidson diagonalization with overlap

---- Real-time Memory Report at c_bands before calling an iterative solver
           208 MiB given to the printing process from OS
             0 MiB allocation reported by mallinfo(arena+hblkhd)
           361 MiB available memory on the node where the printing process lives
------------------
     ethr =  2.16E-11,  avg # of iterations =  4.0

     negative rho (up, down):  1.758E-01 0.000E+00

[...]
------------------
     ethr =  2.16E-11,  avg # of iterations =  4.0

     negative rho (up, down):  1.758E-01 0.000E+00

     total cpu time spent up to now is       43.8 secs

     total energy              =      -2.29928458 Ry
     estimated scf accuracy    <          3.0E-09 Ry

     iteration # 77     ecut=    15.00 Ry     beta= 0.70
     Davidson diagonalization with overlap

---- Real-time Memory Report at c_bands before calling an iterative solver
           208 MiB given to the printing process from OS
             0 MiB allocation reported by mallinfo(arena+hblkhd)
           361 MiB available memory on the node where the printing process lives
------------------
     ethr =  2.16E-11,  avg # of iterations =  4.0

     negative rho (up, down):  1.758E-01 0.000E+00

     total cpu time spent up to now is       44.2 secs

     total energy              =      -2.29928462 Ry
     estimated scf accuracy    <          2.3E-09 Ry

     iteration # 78     ecut=    15.00 Ry     beta= 0.70
     Davidson diagonalization with overlap

---- Real-time Memory Report at c_bands before calling an iterative solver
           208 MiB given to the printing process from OS
             0 MiB allocation reported by mallinfo(arena+hblkhd)
           361 MiB available memory on the node where the printing process lives
------------------
     ethr =  2.16E-11,  avg # of iterations =  1.0

     negative rho (up, down):  1.758E-01 0.000E+00

     total cpu time spent up to now is       44.6 secs

     total energy              =      -2.29928456 Ry
     estimated scf accuracy    <          2.2E-09 Ry

     iteration # 79     ecut=    15.00 Ry     beta= 0.70
     Davidson diagonalization with overlap

---- Real-time Memory Report at c_bands before calling an iterative solver
           208 MiB given to the printing process from OS
             0 MiB allocation reported by mallinfo(arena+hblkhd)
           361 MiB available memory on the node where the printing process lives
------------------
     ethr =  2.16E-11,  avg # of iterations =  1.0

     negative rho (up, down):  1.758E-01 0.000E+00

     total cpu time spent up to now is       45.0 secs

     total energy              =      -2.29928296 Ry
     estimated scf accuracy    <          2.2E-09 Ry

     iteration # 80     ecut=    15.00 Ry     beta= 0.70
     Davidson diagonalization with overlap

---- Real-time Memory Report at c_bands before calling an iterative solver
           208 MiB given to the printing process from OS
             0 MiB allocation reported by mallinfo(arena+hblkhd)
           361 MiB available memory on the node where the printing process lives
------------------
     ethr =  2.16E-11,  avg # of iterations =  4.0

     negative rho (up, down):  1.758E-01 0.000E+00

     total cpu time spent up to now is       45.4 secs

     total energy              =      -2.29927817 Ry
     estimated scf accuracy    <          1.0E-09 Ry

     iteration # 81     ecut=    15.00 Ry     beta= 0.70
     Davidson diagonalization with overlap

---- Real-time Memory Report at c_bands before calling an iterative solver
           208 MiB given to the printing process from OS
             0 MiB allocation reported by mallinfo(arena+hblkhd)
           361 MiB available memory on the node where the printing process lives
------------------
     ethr =  2.16E-11,  avg # of iterations =  4.0

     negative rho (up, down):  1.758E-01 0.000E+00

     total cpu time spent up to now is       45.8 secs

     total energy              =      -2.29927940 Ry
     estimated scf accuracy    <          2.9E-09 Ry

     iteration # 82     ecut=    15.00 Ry     beta= 0.70
     Davidson diagonalization with overlap

---- Real-time Memory Report at c_bands before calling an iterative solver
           208 MiB given to the printing process from OS
             0 MiB allocation reported by mallinfo(arena+hblkhd)
           361 MiB available memory on the node where the printing process lives
------------------
     ethr =  2.16E-11,  avg # of iterations =  3.0

     negative rho (up, down):  1.758E-01 0.000E+00

     total cpu time spent up to now is       46.2 secs

     total energy              =      -2.29928201 Ry
     estimated scf accuracy    <          2.4E-09 Ry

     iteration # 83     ecut=    15.00 Ry     beta= 0.70
     Davidson diagonalization with overlap

---- Real-time Memory Report at c_bands before calling an iterative solver
           208 MiB given to the printing process from OS
             0 MiB allocation reported by mallinfo(arena+hblkhd)
           361 MiB available memory on the node where the printing process lives
------------------
     ethr =  2.16E-11,  avg # of iterations =  4.0

     negative rho (up, down):  1.758E-01 0.000E+00

     total cpu time spent up to now is       46.7 secs

     total energy              =      -2.29928424 Ry
     estimated scf accuracy    <          1.1E-09 Ry

     iteration # 84     ecut=    15.00 Ry     beta= 0.70
     Davidson diagonalization with overlap

---- Real-time Memory Report at c_bands before calling an iterative solver
           208 MiB given to the printing process from OS
             0 MiB allocation reported by mallinfo(arena+hblkhd)
           361 MiB available memory on the node where the printing process lives
------------------
     ethr =  2.16E-11,  avg # of iterations =  4.0

     negative rho (up, down):  1.758E-01 0.000E+00

     total cpu time spent up to now is       47.1 secs

     total energy              =      -2.29928470 Ry
     estimated scf accuracy    <          2.2E-09 Ry

     iteration # 85     ecut=    15.00 Ry     beta= 0.70
     Davidson diagonalization with overlap

---- Real-time Memory Report at c_bands before calling an iterative solver
           208 MiB given to the printing process from OS
             0 MiB allocation reported by mallinfo(arena+hblkhd)
           361 MiB available memory on the node where the printing process lives
------------------
     ethr =  2.16E-11,  avg # of iterations =  1.0

     negative rho (up, down):  1.758E-01 0.000E+00

     total cpu time spent up to now is       47.5 secs

     total energy              =      -2.29927604 Ry
     estimated scf accuracy    <          2.4E-09 Ry

     iteration # 86     ecut=    15.00 Ry     beta= 0.70
     Davidson diagonalization with overlap

---- Real-time Memory Report at c_bands before calling an iterative solver
           208 MiB given to the printing process from OS
             0 MiB allocation reported by mallinfo(arena+hblkhd)
           361 MiB available memory on the node where the printing process lives
------------------
     ethr =  2.16E-11,  avg # of iterations =  4.0

     negative rho (up, down):  1.758E-01 0.000E+00

     total cpu time spent up to now is       47.9 secs

     total energy              =      -2.29928466 Ry
     estimated scf accuracy    <          2.0E-09 Ry

     iteration # 87     ecut=    15.00 Ry     beta= 0.70
     Davidson diagonalization with overlap

---- Real-time Memory Report at c_bands before calling an iterative solver
           208 MiB given to the printing process from OS
             0 MiB allocation reported by mallinfo(arena+hblkhd)
           361 MiB available memory on the node where the printing process lives
------------------
     ethr =  2.16E-11,  avg # of iterations =  4.0

     negative rho (up, down):  1.758E-01 0.000E+00

     total cpu time spent up to now is       48.3 secs

     total energy              =      -2.29928271 Ry
     estimated scf accuracy    <          2.4E-09 Ry

     iteration # 88     ecut=    15.00 Ry     beta= 0.70
     Davidson diagonalization with overlap

---- Real-time Memory Report at c_bands before calling an iterative solver
           208 MiB given to the printing process from OS
             0 MiB allocation reported by mallinfo(arena+hblkhd)
           361 MiB available memory on the node where the printing process lives
------------------
     ethr =  2.16E-11,  avg # of iterations =  4.0

     negative rho (up, down):  1.758E-01 0.000E+00

     total cpu time spent up to now is       48.7 secs

     total energy              =      -2.29928277 Ry
     estimated scf accuracy    <          6.6E-10 Ry

     iteration # 89     ecut=    15.00 Ry     beta= 0.70
     Davidson diagonalization with overlap

---- Real-time Memory Report at c_bands before calling an iterative solver
           208 MiB given to the printing process from OS
             0 MiB allocation reported by mallinfo(arena+hblkhd)
           361 MiB available memory on the node where the printing process lives
------------------
     ethr =  2.16E-11,  avg # of iterations =  1.0

     negative rho (up, down):  1.758E-01 0.000E+00

     total cpu time spent up to now is       49.1 secs

     total energy              =      -2.29928448 Ry
     estimated scf accuracy    <          6.5E-10 Ry

     iteration # 90     ecut=    15.00 Ry     beta= 0.70
     Davidson diagonalization with overlap

---- Real-time Memory Report at c_bands before calling an iterative solver
           208 MiB given to the printing process from OS
             0 MiB allocation reported by mallinfo(arena+hblkhd)
           361 MiB available memory on the node where the printing process lives
------------------
     ethr =  2.16E-11,  avg # of iterations =  4.0

     negative rho (up, down):  1.758E-01 0.000E+00

     total cpu time spent up to now is       49.5 secs

     total energy              =      -2.29928456 Ry
     estimated scf accuracy    <          2.1E-09 Ry

     iteration # 91     ecut=    15.00 Ry     beta= 0.70
     Davidson diagonalization with overlap

---- Real-time Memory Report at c_bands before calling an iterative solver
           208 MiB given to the printing process from OS
             0 MiB allocation reported by mallinfo(arena+hblkhd)
           361 MiB available memory on the node where the printing process lives
------------------
     ethr =  2.16E-11,  avg # of iterations =  1.0

     negative rho (up, down):  1.758E-01 0.000E+00

     total cpu time spent up to now is       49.9 secs

     total energy              =      -2.29928463 Ry
     estimated scf accuracy    <          2.1E-09 Ry

     iteration # 92     ecut=    15.00 Ry     beta= 0.70
     Davidson diagonalization with overlap

---- Real-time Memory Report at c_bands before calling an iterative solver
           208 MiB given to the printing process from OS
             0 MiB allocation reported by mallinfo(arena+hblkhd)
           361 MiB available memory on the node where the printing process lives
------------------
     ethr =  2.16E-11,  avg # of iterations =  1.0

     negative rho (up, down):  1.758E-01 0.000E+00

     total cpu time spent up to now is       50.2 secs

     total energy              =      -2.29927267 Ry
     estimated scf accuracy    <          2.2E-09 Ry

     iteration # 93     ecut=    15.00 Ry     beta= 0.70
     Davidson diagonalization with overlap

---- Real-time Memory Report at c_bands before calling an iterative solver
           208 MiB given to the printing process from OS
             0 MiB allocation reported by mallinfo(arena+hblkhd)
           361 MiB available memory on the node where the printing process lives
------------------
     ethr =  2.16E-11,  avg # of iterations =  4.0

     negative rho (up, down):  1.758E-01 0.000E+00

     total cpu time spent up to now is       50.7 secs

     total energy              =      -2.29927275 Ry
     estimated scf accuracy    <          2.1E-09 Ry

     iteration # 94     ecut=    15.00 Ry     beta= 0.70
     Davidson diagonalization with overlap

---- Real-time Memory Report at c_bands before calling an iterative solver
           208 MiB given to the printing process from OS
             0 MiB allocation reported by mallinfo(arena+hblkhd)
           361 MiB available memory on the node where the printing process lives
------------------
     ethr =  2.16E-11,  avg # of iterations =  3.0

     negative rho (up, down):  1.758E-01 0.000E+00

     total cpu time spent up to now is       51.1 secs

     total energy              =      -2.29928216 Ry
     estimated scf accuracy    <          1.7E-09 Ry

     iteration # 95     ecut=    15.00 Ry     beta= 0.70
     Davidson diagonalization with overlap

---- Real-time Memory Report at c_bands before calling an iterative solver
           208 MiB given to the printing process from OS
             0 MiB allocation reported by mallinfo(arena+hblkhd)
           361 MiB available memory on the node where the printing process lives
------------------
     ethr =  2.16E-11,  avg # of iterations =  4.0

     negative rho (up, down):  1.758E-01 0.000E+00

     total cpu time spent up to now is       51.5 secs

     total energy              =      -2.29927864 Ry
     estimated scf accuracy    <          4.7E-10 Ry

     iteration # 96     ecut=    15.00 Ry     beta= 0.70
     Davidson diagonalization with overlap

---- Real-time Memory Report at c_bands before calling an iterative solver
           208 MiB given to the printing process from OS
             0 MiB allocation reported by mallinfo(arena+hblkhd)
           361 MiB available memory on the node where the printing process lives
------------------
     ethr =  2.16E-11,  avg # of iterations =  4.0

     negative rho (up, down):  1.758E-01 0.000E+00

     total cpu time spent up to now is       51.9 secs

     total energy              =      -2.29928257 Ry
     estimated scf accuracy    <          2.7E-09 Ry

     iteration # 97     ecut=    15.00 Ry     beta= 0.70
     Davidson diagonalization with overlap

---- Real-time Memory Report at c_bands before calling an iterative solver
           208 MiB given to the printing process from OS
             0 MiB allocation reported by mallinfo(arena+hblkhd)
           361 MiB available memory on the node where the printing process lives
------------------
     ethr =  2.16E-11,  avg # of iterations =  4.0

     negative rho (up, down):  1.758E-01 0.000E+00

     total cpu time spent up to now is       52.3 secs

     total energy              =      -2.29928450 Ry
     estimated scf accuracy    <          6.2E-10 Ry

     iteration # 98     ecut=    15.00 Ry     beta= 0.70
     Davidson diagonalization with overlap

---- Real-time Memory Report at c_bands before calling an iterative solver
           208 MiB given to the printing process from OS
             0 MiB allocation reported by mallinfo(arena+hblkhd)
           361 MiB available memory on the node where the printing process lives
------------------
     ethr =  2.16E-11,  avg # of iterations =  4.0

     negative rho (up, down):  1.758E-01 0.000E+00

     total cpu time spent up to now is       52.7 secs

     total energy              =      -2.29927968 Ry
     estimated scf accuracy    <          2.2E-09 Ry

     iteration # 99     ecut=    15.00 Ry     beta= 0.70
     Davidson diagonalization with overlap

---- Real-time Memory Report at c_bands before calling an iterative solver
           208 MiB given to the printing process from OS
             0 MiB allocation reported by mallinfo(arena+hblkhd)
           361 MiB available memory on the node where the printing process lives
------------------
     ethr =  2.16E-11,  avg # of iterations =  4.0

     negative rho (up, down):  1.758E-01 0.000E+00

     total cpu time spent up to now is       53.1 secs

     total energy              =      -2.29927983 Ry
     estimated scf accuracy    <          2.4E-09 Ry

     iteration #100     ecut=    15.00 Ry     beta= 0.70
     Davidson diagonalization with overlap

---- Real-time Memory Report at c_bands before calling an iterative solver
           208 MiB given to the printing process from OS
             0 MiB allocation reported by mallinfo(arena+hblkhd)
           361 MiB available memory on the node where the printing process lives
------------------
     ethr =  2.16E-11,  avg # of iterations =  2.0

     negative rho (up, down):  1.758E-01 0.000E+00

     total cpu time spent up to now is       53.5 secs

     total energy              =      -2.29928417 Ry
     estimated scf accuracy    <          2.4E-09 Ry

     End of self-consistent calculation

     convergence NOT achieved after 100 iterations: stopping

     Writing config to output data dir ./.save/
     Message from routine punch:
     wavefunctions written to file

     init_run     :      0.36s CPU      0.38s WALL (       1 calls)
     electrons    :     51.48s CPU     51.66s WALL (       5 calls)
     update_pot   :      0.96s CPU      0.98s WALL (       4 calls)
     forces       :      0.35s CPU      0.36s WALL (       4 calls)

     Called by init_run:
     wfcinit      :      0.03s CPU      0.03s WALL (       1 calls)
     wfcinit:atom :      0.00s CPU      0.00s WALL (       1 calls)
     wfcinit:wfcr :      0.02s CPU      0.02s WALL (       1 calls)
     potinit      :      0.22s CPU      0.23s WALL (       1 calls)
     hinit0       :      0.02s CPU      0.02s WALL (       1 calls)

     Called by electrons:
     c_bands      :     10.76s CPU     10.78s WALL (     129 calls)
     sum_band     :      5.99s CPU      6.00s WALL (     129 calls)
     v_of_rho     :     27.16s CPU     27.23s WALL (     134 calls)
     v_h          :      1.54s CPU      1.55s WALL (     134 calls)
     v_xc         :     25.62s CPU     25.68s WALL (     134 calls)
     newd         :      2.00s CPU      2.00s WALL (     134 calls)
     mix_rho      :      6.03s CPU      6.10s WALL (     129 calls)

     Called by c_bands:
     init_us_2    :      0.18s CPU      0.18s WALL (     259 calls)
     init_us_2:cp :      0.18s CPU      0.18s WALL (     259 calls)
     cegterg      :     10.64s CPU     10.66s WALL (     129 calls)

     Called by sum_band:
     sum_band:wei :      0.00s CPU      0.00s WALL (     129 calls)
     sum_band:loo :      1.73s CPU      1.74s WALL (     129 calls)
     sum_band:buf :      0.00s CPU      0.00s WALL (     129 calls)
     sum_band:ini :      0.09s CPU      0.09s WALL (     129 calls)
     sum_band:cal :      0.02s CPU      0.02s WALL (     129 calls)
     sum_band:bec :      0.00s CPU      0.00s WALL (     129 calls)
     addusdens    :      0.56s CPU      0.57s WALL (     129 calls)
     addusd:skk   :      0.17s CPU      0.17s WALL (     129 calls)
     addusd:dgemm :      0.12s CPU      0.12s WALL (     129 calls)
     addusd:qvan2 :      0.14s CPU      0.14s WALL (     129 calls)

     Called by *egterg:
     cdiaghg      :      0.01s CPU      0.01s WALL (     519 calls)
     cegterg:over :      0.14s CPU      0.14s WALL (     394 calls)
     cegterg:upda :      0.10s CPU      0.11s WALL (     394 calls)
     cegterg:last :      0.21s CPU      0.21s WALL (     315 calls)
     h_psi        :      9.97s CPU      9.98s WALL (     524 calls)
     s_psi        :      0.05s CPU      0.06s WALL (     524 calls)
     g_psi        :      0.05s CPU      0.05s WALL (     394 calls)

     Called by h_psi:
     h_psi:calbec :      0.08s CPU      0.08s WALL (     524 calls)
     vloc_psi     :      9.80s CPU      9.81s WALL (     524 calls)
     add_vuspsi   :      0.06s CPU      0.06s WALL (     524 calls)

     General routines
     calbec       :      0.10s CPU      0.10s WALL (     669 calls)
     fft          :     13.55s CPU     13.58s WALL (    1486 calls)
     ffts         :      1.22s CPU      1.22s WALL (     129 calls)
     fftw         :     10.30s CPU     10.31s WALL (    1866 calls)
     davcio       :      0.00s CPU      0.01s WALL (      19 calls)


     PWSCF        :     53.33s CPU     53.56s WALL


   This run was terminated on:   3: 5:12  28Feb2022            

=------------------------------------------------------------------------------=
   JOB DONE.
=------------------------------------------------------------------------------=
