
     Program PWSCF v.7.0 starts on 28Feb2022 at 22:14: 0 

     This program is part of the open-source Quantum ESPRESSO suite
     for quantum simulation of materials; please cite
         "P. Giannozzi et al., J. Phys.:Condens. Matter 21 395502 (2009);
         "P. Giannozzi et al., J. Phys.:Condens. Matter 29 465901 (2017);
         "P. Giannozzi et al., J. Chem. Phys. 152 154105 (2020);
          URL http://www.quantum-espresso.org", 
     in publications or presentations arising from this work. More details at
     http://www.quantum-espresso.org/quote

     Serial version
     1309 MiB available memory on the printing compute node when the environment starts

     Waiting for input...
     Reading input from standard input

     Current dimensions of program PWSCF are:
     Max number of different atomic species (ntypx) = 10
     Max number of k-points (npk) =  40000
     Max angular momentum in pseudopotentials (lmaxx) =  4

    ============================================================
    |  pseudopotential report for atomic species:  1           |
    |        pseudo potential version   7   3   2              |
    ------------------------------------------------------------
    |  hydrogen            PBE                  exchange-corr  |
    |  z =   1.    zv( 1) =   1.    exfact =   5.00000         |
    |  ifpcor =  0           atomic energy =  -0.91772 Ry      |
    |  index    orbital      occupation    energy              |
    |    1        100           1.00       -0.48               |
    |  rinner =  0.5000                                        |
    |    new generation scheme:                                |
    |    nbeta =  1     kkbeta =  271     rcloc =    0.6000    |
    |    ibeta    l     epsilon   rcut                         |
    |      1       0      -0.48   0.80                         |
    ============================================================

     IMPORTANT: XC functional enforced from input :
     Exchange-correlation= BLYP
                           (   1   3   1   3   0   0   0)
     Any further DFT definition will be discarded
     Please, verify this is what you really want


     G-vector sticks info
     --------------------
     sticks:   dense  smooth     PW     G-vecs:    dense   smooth      PW
     Sum        1433    1433    421                40651    40651    6451

     Using Slab Decomposition



     bravais-lattice index     =            1
     lattice parameter (alat)  =      30.0000  a.u.
     unit-cell volume          =   27000.0000 (a.u.)^3
     number of atoms/cell      =            2
     number of atomic types    =            1
     number of electrons       =         2.00
     number of Kohn-Sham states=            2
     kinetic-energy cutoff     =       5.0000  Ry
     charge density cutoff     =      20.0000  Ry
     scf convergence threshold =      1.0E-08
     mixing beta               =       0.7000
     number of iterations used =            8  plain     mixing
     Exchange-correlation= BLYP
                           (   1   3   1   3   0   0   0)

     celldm(1)=  30.000000  celldm(2)=   0.000000  celldm(3)=   0.000000
     celldm(4)=   0.000000  celldm(5)=   0.000000  celldm(6)=   0.000000

     crystal axes: (cart. coord. in units of alat)
               a(1) = (   1.000000   0.000000   0.000000 )  
               a(2) = (   0.000000   1.000000   0.000000 )  
               a(3) = (   0.000000   0.000000   1.000000 )  

     reciprocal axes: (cart. coord. in units 2 pi/alat)
               b(1) = (  1.000000  0.000000  0.000000 )  
               b(2) = (  0.000000  1.000000  0.000000 )  
               b(3) = (  0.000000  0.000000  1.000000 )  


     PseudoPot. # 1 for hy read from file:
     /root/q-e/pseudo/H_US.van
     MD5 check sum: a9a9bfe98ff56cf4de197d71fc46bb44
     Pseudo is Ultrasoft, Zval =  1.0
     Generated by Vanderbilt code, v. 7.3.2
     Using radial grid of  399 points,  1 beta functions with: 
                l(1) =   0
     Q(r) pseudized with  8 coefficients,  rinner =    0.500

     atomic species   valence    mass     pseudopotential
        H              1.00     1.00784     hy( 1.00)

      8 Sym. Ops. (no inversion) found


                                    s                        frac. trans.

      isym =  1     identity                                     

 cryst.   s( 1) = (     1          0          0      )
                  (     0          1          0      )
                  (     0          0          1      )

 cart.    s( 1) = (  1.0000000  0.0000000  0.0000000 )
                  (  0.0000000  1.0000000  0.0000000 )
                  (  0.0000000  0.0000000  1.0000000 )


      isym =  2     180 deg rotation - cart. axis [1,0,0]        

 cryst.   s( 2) = (     1          0          0      )
                  (     0         -1          0      )
                  (     0          0         -1      )

 cart.    s( 2) = (  1.0000000  0.0000000  0.0000000 )
                  (  0.0000000 -1.0000000  0.0000000 )
                  (  0.0000000  0.0000000 -1.0000000 )


      isym =  3      90 deg rotation - cart. axis [-1,0,0]       

 cryst.   s( 3) = (     1          0          0      )
                  (     0          0         -1      )
                  (     0          1          0      )

 cart.    s( 3) = (  1.0000000  0.0000000  0.0000000 )
                  (  0.0000000  0.0000000  1.0000000 )
                  (  0.0000000 -1.0000000  0.0000000 )


      isym =  4      90 deg rotation - cart. axis [1,0,0]        

 cryst.   s( 4) = (     1          0          0      )
                  (     0          0          1      )
                  (     0         -1          0      )

 cart.    s( 4) = (  1.0000000  0.0000000  0.0000000 )
                  (  0.0000000  0.0000000 -1.0000000 )
                  (  0.0000000  1.0000000  0.0000000 )


      isym =  5     inv. 180 deg rotation - cart. axis [0,0,1]   

 cryst.   s( 5) = (     1          0          0      )
                  (     0          1          0      )
                  (     0          0         -1      )

 cart.    s( 5) = (  1.0000000  0.0000000  0.0000000 )
                  (  0.0000000  1.0000000  0.0000000 )
                  (  0.0000000  0.0000000 -1.0000000 )


      isym =  6     inv. 180 deg rotation - cart. axis [0,1,0]   

 cryst.   s( 6) = (     1          0          0      )
                  (     0         -1          0      )
                  (     0          0          1      )

 cart.    s( 6) = (  1.0000000  0.0000000  0.0000000 )
                  (  0.0000000 -1.0000000  0.0000000 )
                  (  0.0000000  0.0000000  1.0000000 )


      isym =  7     inv. 180 deg rotation - cart. axis [0,1,1]   

 cryst.   s( 7) = (     1          0          0      )
                  (     0          0         -1      )
                  (     0         -1          0      )

 cart.    s( 7) = (  1.0000000  0.0000000  0.0000000 )
                  (  0.0000000  0.0000000 -1.0000000 )
                  (  0.0000000 -1.0000000  0.0000000 )


      isym =  8     inv. 180 deg rotation - cart. axis [0,1,-1]  

 cryst.   s( 8) = (     1          0          0      )
                  (     0          0          1      )
                  (     0          1          0      )

 cart.    s( 8) = (  1.0000000  0.0000000  0.0000000 )
                  (  0.0000000  0.0000000  1.0000000 )
                  (  0.0000000  1.0000000  0.0000000 )


     point group C_4v (4mm) 
     there are  5 classes
     the character table:

       E     2C4   C2    2s_v  2s_d 
A_1    1.00  1.00  1.00  1.00  1.00
A_2    1.00  1.00  1.00 -1.00 -1.00
B_1    1.00 -1.00  1.00  1.00 -1.00
B_2    1.00 -1.00  1.00 -1.00  1.00
E      2.00  0.00 -2.00  0.00  0.00

     the symmetry operations in each class and the name of the first element:

     E        1
          identity                                               
     2C4      3    4
           90 deg rotation - cart. axis [-1,0,0]                 
     C2       2
          180 deg rotation - cart. axis [1,0,0]                  
     2s_v     5    6
          inv. 180 deg rotation - cart. axis [0,0,1]             
     2s_d     7    8
          inv. 180 deg rotation - cart. axis [0,1,1]             

   Cartesian axes

     site n.     atom                  positions (alat units)
         1           H   tau(   1) = (   0.0000000   0.0000000   0.0000000  )
         2           H   tau(   2) = (   0.0188973   0.0000000   0.0000000  )

   Crystallographic axes

     site n.     atom                  positions (cryst. coord.)
         1           H   tau(   1) = (  0.0000000  0.0000000  0.0000000  )
         2           H   tau(   2) = (  0.0188973  0.0000000  0.0000000  )

     number of k points=     1
                       cart. coord. in units 2pi/alat
        k(    1) = (  -0.5000000  -0.5000000  -0.5000000), wk =   2.0000000

                       cryst. coord.
        k(    1) = (  -0.5000000  -0.5000000  -0.5000000), wk =   2.0000000

     Dense  grid:    40651 G-vectors     FFT dimensions: (  45,  45,  45)

     Dynamical RAM for                 wfc:       0.16 MB

     Dynamical RAM for     wfc (w. buffer):       0.16 MB

     Dynamical RAM for           str. fact:       0.62 MB

     Dynamical RAM for           local pot:       0.00 MB

     Dynamical RAM for          nlocal pot:       0.16 MB

     Dynamical RAM for                qrad:       0.00 MB

     Dynamical RAM for          rho,v,vnew:       3.95 MB

     Dynamical RAM for               rhoin:       1.32 MB

     Dynamical RAM for            rho*nmix:       9.92 MB

     Dynamical RAM for           G-vectors:       2.64 MB

     Dynamical RAM for          h,s,v(r/c):       0.00 MB

     Dynamical RAM for          <psi|beta>:       0.00 MB

     Dynamical RAM for                 psi:       0.31 MB

     Dynamical RAM for                hpsi:       0.31 MB

     Dynamical RAM for                spsi:       0.31 MB

     Dynamical RAM for      wfcinit/wfcrot:       0.31 MB

     Dynamical RAM for           addusdens:       3.72 MB

     Estimated static dynamical RAM per process >      13.55 MB

     Estimated max dynamical RAM per process >      27.20 MB

     Initial potential from superposition of free atoms

     starting charge       2.0000, renormalised to       2.0000

     negative rho (up, down):  5.967E-01 0.000E+00
     Starting wfcs are    2 randomized atomic wfcs

     total cpu time spent up to now is        0.1 secs

     Self-consistent Calculation

     iteration #  1     ecut=     5.00 Ry     beta= 0.70
     Davidson diagonalization with overlap

---- Real-time Memory Report at c_bands before calling an iterative solver
            39 MiB given to the printing process from OS
             0 MiB allocation reported by mallinfo(arena+hblkhd)
          1289 MiB available memory on the node where the printing process lives
------------------
     ethr =  1.00E-02,  avg # of iterations =  9.0

     negative rho (up, down):  6.483E-01 0.000E+00

     total cpu time spent up to now is        0.2 secs

     total energy              =      -0.58722932 Ry
     estimated scf accuracy    <       0.05711965 Ry

     iteration #  2     ecut=     5.00 Ry     beta= 0.70
     Davidson diagonalization with overlap

---- Real-time Memory Report at c_bands before calling an iterative solver
            46 MiB given to the printing process from OS
             0 MiB allocation reported by mallinfo(arena+hblkhd)
          1276 MiB available memory on the node where the printing process lives
------------------
     ethr =  2.86E-03,  avg # of iterations =  1.0

     negative rho (up, down):  6.609E-01 0.000E+00

     total cpu time spent up to now is        0.2 secs

     total energy              =      -0.58585580 Ry
     estimated scf accuracy    <       0.00220616 Ry

     iteration #  3     ecut=     5.00 Ry     beta= 0.70
     Davidson diagonalization with overlap

---- Real-time Memory Report at c_bands before calling an iterative solver
            47 MiB given to the printing process from OS
             0 MiB allocation reported by mallinfo(arena+hblkhd)
          1275 MiB available memory on the node where the printing process lives
------------------
     ethr =  1.10E-04,  avg # of iterations =  5.0

     negative rho (up, down):  6.363E-01 0.000E+00

     total cpu time spent up to now is        0.3 secs

     total energy              =      -0.59257146 Ry
     estimated scf accuracy    <       0.00054424 Ry

     iteration #  4     ecut=     5.00 Ry     beta= 0.70
     Davidson diagonalization with overlap

---- Real-time Memory Report at c_bands before calling an iterative solver
            48 MiB given to the printing process from OS
             0 MiB allocation reported by mallinfo(arena+hblkhd)
          1273 MiB available memory on the node where the printing process lives
------------------
     ethr =  2.72E-05,  avg # of iterations =  4.0

     negative rho (up, down):  6.340E-01 0.000E+00

     total cpu time spent up to now is        0.4 secs

     total energy              =      -0.59465322 Ry
     estimated scf accuracy    <       0.00055040 Ry

     iteration #  5     ecut=     5.00 Ry     beta= 0.70
     Davidson diagonalization with overlap

---- Real-time Memory Report at c_bands before calling an iterative solver
            50 MiB given to the printing process from OS
             0 MiB allocation reported by mallinfo(arena+hblkhd)
          1272 MiB available memory on the node where the printing process lives
------------------
     ethr =  2.72E-05,  avg # of iterations =  2.0

     negative rho (up, down):  6.468E-01 0.000E+00

     total cpu time spent up to now is        0.5 secs

     total energy              =      -0.59311679 Ry
     estimated scf accuracy    <       0.00018295 Ry

     iteration #  6     ecut=     5.00 Ry     beta= 0.70
     Davidson diagonalization with overlap

---- Real-time Memory Report at c_bands before calling an iterative solver
            51 MiB given to the printing process from OS
             0 MiB allocation reported by mallinfo(arena+hblkhd)
          1271 MiB available memory on the node where the printing process lives
------------------
     ethr =  9.15E-06,  avg # of iterations =  2.0

     negative rho (up, down):  6.488E-01 0.000E+00

     total cpu time spent up to now is        0.5 secs

     total energy              =      -0.59332779 Ry
     estimated scf accuracy    <       0.00005161 Ry

     iteration #  7     ecut=     5.00 Ry     beta= 0.70
     Davidson diagonalization with overlap

---- Real-time Memory Report at c_bands before calling an iterative solver
            52 MiB given to the printing process from OS
             0 MiB allocation reported by mallinfo(arena+hblkhd)
          1270 MiB available memory on the node where the printing process lives
------------------
     ethr =  2.58E-06,  avg # of iterations =  2.0

     negative rho (up, down):  6.417E-01 0.000E+00

     total cpu time spent up to now is        0.6 secs

     total energy              =      -0.59509240 Ry
     estimated scf accuracy    <       0.00009581 Ry

     iteration #  8     ecut=     5.00 Ry     beta= 0.70
     Davidson diagonalization with overlap

---- Real-time Memory Report at c_bands before calling an iterative solver
            53 MiB given to the printing process from OS
             0 MiB allocation reported by mallinfo(arena+hblkhd)
          1268 MiB available memory on the node where the printing process lives
------------------
     c_bands:  1 eigenvalues not converged
     ethr =  2.58E-06,  avg # of iterations = 20.0

     negative rho (up, down):  6.430E-01 0.000E+00

     total cpu time spent up to now is        0.7 secs

     total energy              =      -0.59311918 Ry
     estimated scf accuracy    <       0.00014218 Ry

     iteration #  9     ecut=     5.00 Ry     beta= 0.70
     Davidson diagonalization with overlap

---- Real-time Memory Report at c_bands before calling an iterative solver
            55 MiB given to the printing process from OS
             0 MiB allocation reported by mallinfo(arena+hblkhd)
          1267 MiB available memory on the node where the printing process lives
------------------
     c_bands:  1 eigenvalues not converged
     ethr =  2.58E-06,  avg # of iterations = 20.0

     negative rho (up, down):  6.433E-01 0.000E+00

     total cpu time spent up to now is        0.8 secs

     total energy              =      -0.59388295 Ry
     estimated scf accuracy    <       0.00003502 Ry

     iteration # 10     ecut=     5.00 Ry     beta= 0.70
     Davidson diagonalization with overlap

---- Real-time Memory Report at c_bands before calling an iterative solver
            56 MiB given to the printing process from OS
             0 MiB allocation reported by mallinfo(arena+hblkhd)
          1266 MiB available memory on the node where the printing process lives
------------------
     c_bands:  1 eigenvalues not converged
     ethr =  1.75E-06,  avg # of iterations = 20.0

     negative rho (up, down):  6.427E-01 0.000E+00

     total cpu time spent up to now is        1.0 secs

     total energy              =      -0.59413774 Ry
     estimated scf accuracy    <       0.00000419 Ry

     iteration # 11     ecut=     5.00 Ry     beta= 0.70
     Davidson diagonalization with overlap

---- Real-time Memory Report at c_bands before calling an iterative solver
            56 MiB given to the printing process from OS
             0 MiB allocation reported by mallinfo(arena+hblkhd)
          1266 MiB available memory on the node where the printing process lives
------------------
     c_bands:  1 eigenvalues not converged
     ethr =  2.09E-07,  avg # of iterations = 20.0

     negative rho (up, down):  6.426E-01 0.000E+00

     total cpu time spent up to now is        1.1 secs

     total energy              =      -0.59421948 Ry
     estimated scf accuracy    <       0.00000369 Ry

     iteration # 12     ecut=     5.00 Ry     beta= 0.70
     Davidson diagonalization with overlap

---- Real-time Memory Report at c_bands before calling an iterative solver
            56 MiB given to the printing process from OS
             0 MiB allocation reported by mallinfo(arena+hblkhd)
          1266 MiB available memory on the node where the printing process lives
------------------
     ethr =  1.85E-07,  avg # of iterations =  3.0

     negative rho (up, down):  6.425E-01 0.000E+00

     total cpu time spent up to now is        1.2 secs

     total energy              =      -0.59431697 Ry
     estimated scf accuracy    <       0.00001684 Ry

     iteration # 13     ecut=     5.00 Ry     beta= 0.70
     Davidson diagonalization with overlap

---- Real-time Memory Report at c_bands before calling an iterative solver
            56 MiB given to the printing process from OS
             0 MiB allocation reported by mallinfo(arena+hblkhd)
          1266 MiB available memory on the node where the printing process lives
------------------
     ethr =  1.85E-07,  avg # of iterations =  3.0

     negative rho (up, down):  6.428E-01 0.000E+00

     total cpu time spent up to now is        1.2 secs

     total energy              =      -0.59421381 Ry
     estimated scf accuracy    <       0.00002058 Ry

     iteration # 14     ecut=     5.00 Ry     beta= 0.70
     Davidson diagonalization with overlap

---- Real-time Memory Report at c_bands before calling an iterative solver
            56 MiB given to the printing process from OS
             0 MiB allocation reported by mallinfo(arena+hblkhd)
          1266 MiB available memory on the node where the printing process lives
------------------
     ethr =  1.85E-07,  avg # of iterations =  2.0

     negative rho (up, down):  6.436E-01 0.000E+00

     total cpu time spent up to now is        1.3 secs

     total energy              =      -0.59373860 Ry
     estimated scf accuracy    <       0.00001037 Ry

     iteration # 15     ecut=     5.00 Ry     beta= 0.70
     Davidson diagonalization with overlap

---- Real-time Memory Report at c_bands before calling an iterative solver
            56 MiB given to the printing process from OS
             0 MiB allocation reported by mallinfo(arena+hblkhd)
          1266 MiB available memory on the node where the printing process lives
------------------
     ethr =  1.85E-07,  avg # of iterations =  3.0

     negative rho (up, down):  6.435E-01 0.000E+00

     total cpu time spent up to now is        1.4 secs

     total energy              =      -0.59408432 Ry
     estimated scf accuracy    <       0.00000609 Ry

     iteration # 16     ecut=     5.00 Ry     beta= 0.70
     Davidson diagonalization with overlap

---- Real-time Memory Report at c_bands before calling an iterative solver
            56 MiB given to the printing process from OS
             0 MiB allocation reported by mallinfo(arena+hblkhd)
          1266 MiB available memory on the node where the printing process lives
------------------
     ethr =  1.85E-07,  avg # of iterations =  3.0

     negative rho (up, down):  6.434E-01 0.000E+00

     total cpu time spent up to now is        1.5 secs

     total energy              =      -0.59404015 Ry
     estimated scf accuracy    <       0.00000665 Ry

     iteration # 17     ecut=     5.00 Ry     beta= 0.70
     Davidson diagonalization with overlap

---- Real-time Memory Report at c_bands before calling an iterative solver
            56 MiB given to the printing process from OS
             0 MiB allocation reported by mallinfo(arena+hblkhd)
          1266 MiB available memory on the node where the printing process lives
------------------
     ethr =  1.85E-07,  avg # of iterations =  2.0

     negative rho (up, down):  6.434E-01 0.000E+00

     total cpu time spent up to now is        1.5 secs

     total energy              =      -0.59406233 Ry
     estimated scf accuracy    <       0.00000297 Ry

     iteration # 18     ecut=     5.00 Ry     beta= 0.70
     Davidson diagonalization with overlap

---- Real-time Memory Report at c_bands before calling an iterative solver
            56 MiB given to the printing process from OS
             0 MiB allocation reported by mallinfo(arena+hblkhd)
          1266 MiB available memory on the node where the printing process lives
------------------
     ethr =  1.48E-07,  avg # of iterations =  2.0

     negative rho (up, down):  6.432E-01 0.000E+00

     total cpu time spent up to now is        1.6 secs

     total energy              =      -0.59408850 Ry
     estimated scf accuracy    <       0.00000201 Ry

     iteration # 19     ecut=     5.00 Ry     beta= 0.70
     Davidson diagonalization with overlap

---- Real-time Memory Report at c_bands before calling an iterative solver
            56 MiB given to the printing process from OS
             0 MiB allocation reported by mallinfo(arena+hblkhd)
          1266 MiB available memory on the node where the printing process lives
------------------
     ethr =  1.00E-07,  avg # of iterations =  3.0

     negative rho (up, down):  6.432E-01 0.000E+00

     total cpu time spent up to now is        1.7 secs

     total energy              =      -0.59411183 Ry
     estimated scf accuracy    <       0.00000087 Ry

     iteration # 20     ecut=     5.00 Ry     beta= 0.70
     Davidson diagonalization with overlap

---- Real-time Memory Report at c_bands before calling an iterative solver
            56 MiB given to the printing process from OS
             0 MiB allocation reported by mallinfo(arena+hblkhd)
          1266 MiB available memory on the node where the printing process lives
------------------
     ethr =  4.36E-08,  avg # of iterations =  2.0

     negative rho (up, down):  6.432E-01 0.000E+00

     total cpu time spent up to now is        1.7 secs

     total energy              =      -0.59410235 Ry
     estimated scf accuracy    <       0.00000112 Ry

     iteration # 21     ecut=     5.00 Ry     beta= 0.70
     Davidson diagonalization with overlap

---- Real-time Memory Report at c_bands before calling an iterative solver
            56 MiB given to the printing process from OS
             0 MiB allocation reported by mallinfo(arena+hblkhd)
          1266 MiB available memory on the node where the printing process lives
------------------
     ethr =  4.36E-08,  avg # of iterations =  2.0

     negative rho (up, down):  6.432E-01 0.000E+00

     total cpu time spent up to now is        1.8 secs

     total energy              =      -0.59410075 Ry
     estimated scf accuracy    <       0.00000039 Ry

     iteration # 22     ecut=     5.00 Ry     beta= 0.70
     Davidson diagonalization with overlap

---- Real-time Memory Report at c_bands before calling an iterative solver
            56 MiB given to the printing process from OS
             0 MiB allocation reported by mallinfo(arena+hblkhd)
          1266 MiB available memory on the node where the printing process lives
------------------
     ethr =  1.94E-08,  avg # of iterations =  2.0

     negative rho (up, down):  6.432E-01 0.000E+00

     total cpu time spent up to now is        1.9 secs

     total energy              =      -0.59410591 Ry
     estimated scf accuracy    <       0.00000007 Ry

     iteration # 23     ecut=     5.00 Ry     beta= 0.70
     Davidson diagonalization with overlap

---- Real-time Memory Report at c_bands before calling an iterative solver
            56 MiB given to the printing process from OS
             0 MiB allocation reported by mallinfo(arena+hblkhd)
          1266 MiB available memory on the node where the printing process lives
------------------
     ethr =  3.30E-09,  avg # of iterations =  2.0

     negative rho (up, down):  6.431E-01 0.000E+00

     total cpu time spent up to now is        1.9 secs

     total energy              =      -0.59411217 Ry
     estimated scf accuracy    <       0.00000013 Ry

     iteration # 24     ecut=     5.00 Ry     beta= 0.70
     Davidson diagonalization with overlap

---- Real-time Memory Report at c_bands before calling an iterative solver
            56 MiB given to the printing process from OS
             0 MiB allocation reported by mallinfo(arena+hblkhd)
          1266 MiB available memory on the node where the printing process lives
------------------
     ethr =  3.30E-09,  avg # of iterations =  3.0

     negative rho (up, down):  6.431E-01 0.000E+00

     total cpu time spent up to now is        2.0 secs

     total energy              =      -0.59411906 Ry
     estimated scf accuracy    <       0.00000011 Ry

     iteration # 25     ecut=     5.00 Ry     beta= 0.70
     Davidson diagonalization with overlap

---- Real-time Memory Report at c_bands before calling an iterative solver
            56 MiB given to the printing process from OS
             0 MiB allocation reported by mallinfo(arena+hblkhd)
          1266 MiB available memory on the node where the printing process lives
------------------
     ethr =  3.30E-09,  avg # of iterations =  3.0

     negative rho (up, down):  6.431E-01 0.000E+00

     total cpu time spent up to now is        2.1 secs

     total energy              =      -0.59411906 Ry
     estimated scf accuracy    <       0.00000022 Ry

     iteration # 26     ecut=     5.00 Ry     beta= 0.70
     Davidson diagonalization with overlap

---- Real-time Memory Report at c_bands before calling an iterative solver
            56 MiB given to the printing process from OS
             0 MiB allocation reported by mallinfo(arena+hblkhd)
          1266 MiB available memory on the node where the printing process lives
------------------
     ethr =  3.30E-09,  avg # of iterations =  2.0

     negative rho (up, down):  6.431E-01 0.000E+00

     total cpu time spent up to now is        2.2 secs

     total energy              =      -0.59411069 Ry
     estimated scf accuracy    <       0.00000030 Ry

     iteration # 27     ecut=     5.00 Ry     beta= 0.70
     Davidson diagonalization with overlap

---- Real-time Memory Report at c_bands before calling an iterative solver
            56 MiB given to the printing process from OS
             0 MiB allocation reported by mallinfo(arena+hblkhd)
          1266 MiB available memory on the node where the printing process lives
------------------
     ethr =  3.30E-09,  avg # of iterations =  3.0

     negative rho (up, down):  6.432E-01 0.000E+00

     total cpu time spent up to now is        2.2 secs

     total energy              =      -0.59409244 Ry
     estimated scf accuracy    <       0.00000014 Ry

     iteration # 28     ecut=     5.00 Ry     beta= 0.70
     Davidson diagonalization with overlap

---- Real-time Memory Report at c_bands before calling an iterative solver
            56 MiB given to the printing process from OS
             0 MiB allocation reported by mallinfo(arena+hblkhd)
          1266 MiB available memory on the node where the printing process lives
------------------
     ethr =  3.30E-09,  avg # of iterations =  4.0

     negative rho (up, down):  6.432E-01 0.000E+00

     total cpu time spent up to now is        2.3 secs

     total energy              =      -0.59410186 Ry
     estimated scf accuracy    <       0.00000005 Ry

     iteration # 29     ecut=     5.00 Ry     beta= 0.70
     Davidson diagonalization with overlap

---- Real-time Memory Report at c_bands before calling an iterative solver
            56 MiB given to the printing process from OS
             0 MiB allocation reported by mallinfo(arena+hblkhd)
          1266 MiB available memory on the node where the printing process lives
------------------
     ethr =  2.57E-09,  avg # of iterations =  3.0

     negative rho (up, down):  6.431E-01 0.000E+00

     total cpu time spent up to now is        2.4 secs

     End of self-consistent calculation

          k =-0.5000-0.5000-0.5000 (  5040 PWs)   bands (ev):

   -13.5864  -1.5039

     occupation numbers 
     1.0000   0.0000

     highest occupied, lowest unoccupied level (ev):   -13.5864   -1.5039

!    total energy              =      -0.59410803 Ry
     estimated scf accuracy    <          1.1E-09 Ry

     The total energy is the sum of the following terms:
     one-electron contribution =      -4.68482221 Ry
     hartree contribution      =       2.33775484 Ry
     xc contribution           =      -1.39663227 Ry
     ewald contribution        =       3.14959162 Ry

     convergence has been achieved in  29 iterations

     Writing all to output data dir ./.save/

     init_run     :      0.07s CPU      0.08s WALL (       1 calls)
     electrons    :      2.28s CPU      2.30s WALL (       1 calls)

     Called by init_run:
     wfcinit      :      0.01s CPU      0.01s WALL (       1 calls)
     wfcinit:atom :      0.00s CPU      0.00s WALL (       1 calls)
     wfcinit:wfcr :      0.00s CPU      0.00s WALL (       1 calls)
     potinit      :      0.04s CPU      0.05s WALL (       1 calls)
     hinit0       :      0.01s CPU      0.01s WALL (       1 calls)

     Called by electrons:
     c_bands      :      0.59s CPU      0.59s WALL (      29 calls)
     sum_band     :      0.23s CPU      0.24s WALL (      29 calls)
     v_of_rho     :      1.18s CPU      1.19s WALL (      30 calls)
     v_h          :      0.06s CPU      0.06s WALL (      30 calls)
     v_xc         :      1.12s CPU      1.13s WALL (      30 calls)
     newd         :      0.08s CPU      0.08s WALL (      30 calls)
     mix_rho      :      0.21s CPU      0.22s WALL (      29 calls)

     Called by c_bands:
     init_us_2    :      0.01s CPU      0.01s WALL (      59 calls)
     init_us_2:cp :      0.01s CPU      0.01s WALL (      59 calls)
     cegterg      :      0.58s CPU      0.59s WALL (      29 calls)

     Called by sum_band:
     sum_band:wei :      0.00s CPU      0.00s WALL (      29 calls)
     sum_band:loo :      0.07s CPU      0.07s WALL (      29 calls)
     sum_band:buf :      0.00s CPU      0.00s WALL (      29 calls)
     sum_band:ini :      0.00s CPU      0.00s WALL (      29 calls)
     sum_band:cal :      0.00s CPU      0.00s WALL (      29 calls)
     sum_band:bec :      0.00s CPU      0.00s WALL (      29 calls)
     addusdens    :      0.02s CPU      0.02s WALL (      29 calls)
     addusd:skk   :      0.01s CPU      0.01s WALL (      29 calls)
     addusd:dgemm :      0.00s CPU      0.00s WALL (      29 calls)
     addusd:qvan2 :      0.01s CPU      0.01s WALL (      29 calls)

     Called by *egterg:
     cdiaghg      :      0.00s CPU      0.00s WALL (     181 calls)
     cegterg:over :      0.01s CPU      0.01s WALL (     152 calls)
     cegterg:upda :      0.01s CPU      0.01s WALL (     152 calls)
     cegterg:last :      0.01s CPU      0.01s WALL (     104 calls)
     h_psi        :      0.54s CPU      0.54s WALL (     182 calls)
     s_psi        :      0.00s CPU      0.00s WALL (     182 calls)
     g_psi        :      0.00s CPU      0.00s WALL (     152 calls)

     Called by h_psi:
     h_psi:calbec :      0.00s CPU      0.00s WALL (     182 calls)
     vloc_psi     :      0.53s CPU      0.53s WALL (     182 calls)
     add_vuspsi   :      0.00s CPU      0.00s WALL (     182 calls)

     General routines
     calbec       :      0.00s CPU      0.00s WALL (     211 calls)
     fft          :      0.51s CPU      0.52s WALL (     329 calls)
     ffts         :      0.04s CPU      0.05s WALL (      29 calls)
     fftw         :      0.55s CPU      0.55s WALL (     564 calls)


     PWSCF        :      2.37s CPU      2.41s WALL


   This run was terminated on:  22:14: 3  28Feb2022            

=------------------------------------------------------------------------------=
   JOB DONE.
=------------------------------------------------------------------------------=
