
     Program PWSCF v.7.0 starts on 28Feb2022 at 14: 1:16 

     This program is part of the open-source Quantum ESPRESSO suite
     for quantum simulation of materials; please cite
         "P. Giannozzi et al., J. Phys.:Condens. Matter 21 395502 (2009);
         "P. Giannozzi et al., J. Phys.:Condens. Matter 29 465901 (2017);
         "P. Giannozzi et al., J. Chem. Phys. 152 154105 (2020);
          URL http://www.quantum-espresso.org", 
     in publications or presentations arising from this work. More details at
     http://www.quantum-espresso.org/quote

     Serial version
     695 MiB available memory on the printing compute node when the environment starts

     Waiting for input...
     Reading input from standard input

     Current dimensions of program PWSCF are:
     Max number of different atomic species (ntypx) = 10
     Max number of k-points (npk) =  40000
     Max angular momentum in pseudopotentials (lmaxx) =  4

    ============================================================
    |  pseudopotential report for atomic species:  1           |
    |        pseudo potential version   7   3   2              |
    ------------------------------------------------------------
    |  hydrogen            PBE                  exchange-corr  |
    |  z =   1.    zv( 1) =   1.    exfact =   5.00000         |
    |  ifpcor =  0           atomic energy =  -0.91772 Ry      |
    |  index    orbital      occupation    energy              |
    |    1        100           1.00       -0.48               |
    |  rinner =  0.5000                                        |
    |    new generation scheme:                                |
    |    nbeta =  1     kkbeta =  271     rcloc =    0.6000    |
    |    ibeta    l     epsilon   rcut                         |
    |      1       0      -0.48   0.80                         |
    ============================================================

     IMPORTANT: XC functional enforced from input :
     Exchange-correlation= BLYP
                           (   1   3   1   3   0   0   0)
     Any further DFT definition will be discarded
     Please, verify this is what you really want


     G-vector sticks info
     --------------------
     sticks:   dense  smooth     PW     G-vecs:    dense   smooth      PW
     Sum        1433    1433    421                40651    40651    6451

     Using Slab Decomposition



     bravais-lattice index     =            1
     lattice parameter (alat)  =      30.0000  a.u.
     unit-cell volume          =   27000.0000 (a.u.)^3
     number of atoms/cell      =            2
     number of atomic types    =            1
     number of electrons       =         2.00
     number of Kohn-Sham states=            2
     kinetic-energy cutoff     =       5.0000  Ry
     charge density cutoff     =      20.0000  Ry
     scf convergence threshold =      1.0E-08
     mixing beta               =       0.7000
     number of iterations used =            8  plain     mixing
     Exchange-correlation= BLYP
                           (   1   3   1   3   0   0   0)

     celldm(1)=  30.000000  celldm(2)=   0.000000  celldm(3)=   0.000000
     celldm(4)=   0.000000  celldm(5)=   0.000000  celldm(6)=   0.000000

     crystal axes: (cart. coord. in units of alat)
               a(1) = (   1.000000   0.000000   0.000000 )  
               a(2) = (   0.000000   1.000000   0.000000 )  
               a(3) = (   0.000000   0.000000   1.000000 )  

     reciprocal axes: (cart. coord. in units 2 pi/alat)
               b(1) = (  1.000000  0.000000  0.000000 )  
               b(2) = (  0.000000  1.000000  0.000000 )  
               b(3) = (  0.000000  0.000000  1.000000 )  


     PseudoPot. # 1 for hy read from file:
     /root/q-e/pseudo/H_US.van
     MD5 check sum: a9a9bfe98ff56cf4de197d71fc46bb44
     Pseudo is Ultrasoft, Zval =  1.0
     Generated by Vanderbilt code, v. 7.3.2
     Using radial grid of  399 points,  1 beta functions with: 
                l(1) =   0
     Q(r) pseudized with  8 coefficients,  rinner =    0.500

     atomic species   valence    mass     pseudopotential
        H              1.00     1.00784     hy( 1.00)

      8 Sym. Ops. (no inversion) found


                                    s                        frac. trans.

      isym =  1     identity                                     

 cryst.   s( 1) = (     1          0          0      )
                  (     0          1          0      )
                  (     0          0          1      )

 cart.    s( 1) = (  1.0000000  0.0000000  0.0000000 )
                  (  0.0000000  1.0000000  0.0000000 )
                  (  0.0000000  0.0000000  1.0000000 )


      isym =  2     180 deg rotation - cart. axis [1,0,0]        

 cryst.   s( 2) = (     1          0          0      )
                  (     0         -1          0      )
                  (     0          0         -1      )

 cart.    s( 2) = (  1.0000000  0.0000000  0.0000000 )
                  (  0.0000000 -1.0000000  0.0000000 )
                  (  0.0000000  0.0000000 -1.0000000 )


      isym =  3      90 deg rotation - cart. axis [-1,0,0]       

 cryst.   s( 3) = (     1          0          0      )
                  (     0          0         -1      )
                  (     0          1          0      )

 cart.    s( 3) = (  1.0000000  0.0000000  0.0000000 )
                  (  0.0000000  0.0000000  1.0000000 )
                  (  0.0000000 -1.0000000  0.0000000 )


      isym =  4      90 deg rotation - cart. axis [1,0,0]        

 cryst.   s( 4) = (     1          0          0      )
                  (     0          0          1      )
                  (     0         -1          0      )

 cart.    s( 4) = (  1.0000000  0.0000000  0.0000000 )
                  (  0.0000000  0.0000000 -1.0000000 )
                  (  0.0000000  1.0000000  0.0000000 )


      isym =  5     inv. 180 deg rotation - cart. axis [0,0,1]   

 cryst.   s( 5) = (     1          0          0      )
                  (     0          1          0      )
                  (     0          0         -1      )

 cart.    s( 5) = (  1.0000000  0.0000000  0.0000000 )
                  (  0.0000000  1.0000000  0.0000000 )
                  (  0.0000000  0.0000000 -1.0000000 )


      isym =  6     inv. 180 deg rotation - cart. axis [0,1,0]   

 cryst.   s( 6) = (     1          0          0      )
                  (     0         -1          0      )
                  (     0          0          1      )

 cart.    s( 6) = (  1.0000000  0.0000000  0.0000000 )
                  (  0.0000000 -1.0000000  0.0000000 )
                  (  0.0000000  0.0000000  1.0000000 )


      isym =  7     inv. 180 deg rotation - cart. axis [0,1,1]   

 cryst.   s( 7) = (     1          0          0      )
                  (     0          0         -1      )
                  (     0         -1          0      )

 cart.    s( 7) = (  1.0000000  0.0000000  0.0000000 )
                  (  0.0000000  0.0000000 -1.0000000 )
                  (  0.0000000 -1.0000000  0.0000000 )


      isym =  8     inv. 180 deg rotation - cart. axis [0,1,-1]  

 cryst.   s( 8) = (     1          0          0      )
                  (     0          0          1      )
                  (     0          1          0      )

 cart.    s( 8) = (  1.0000000  0.0000000  0.0000000 )
                  (  0.0000000  0.0000000  1.0000000 )
                  (  0.0000000  1.0000000  0.0000000 )


     point group C_4v (4mm) 
     there are  5 classes
     the character table:

       E     2C4   C2    2s_v  2s_d 
A_1    1.00  1.00  1.00  1.00  1.00
A_2    1.00  1.00  1.00 -1.00 -1.00
B_1    1.00 -1.00  1.00  1.00 -1.00
B_2    1.00 -1.00  1.00 -1.00  1.00
E      2.00  0.00 -2.00  0.00  0.00

     the symmetry operations in each class and the name of the first element:

     E        1
          identity                                               
     2C4      3    4
           90 deg rotation - cart. axis [-1,0,0]                 
     C2       2
          180 deg rotation - cart. axis [1,0,0]                  
     2s_v     5    6
          inv. 180 deg rotation - cart. axis [0,0,1]             
     2s_d     7    8
          inv. 180 deg rotation - cart. axis [0,1,1]             

   Cartesian axes

     site n.     atom                  positions (alat units)
         1           H   tau(   1) = (   0.0000000   0.0000000   0.0000000  )
         2           H   tau(   2) = (   0.0516525   0.0000000   0.0000000  )

   Crystallographic axes

     site n.     atom                  positions (cryst. coord.)
         1           H   tau(   1) = (  0.0000000  0.0000000  0.0000000  )
         2           H   tau(   2) = (  0.0516525  0.0000000  0.0000000  )

     number of k points=     1
                       cart. coord. in units 2pi/alat
        k(    1) = (  -0.5000000  -0.5000000  -0.5000000), wk =   2.0000000

                       cryst. coord.
        k(    1) = (  -0.5000000  -0.5000000  -0.5000000), wk =   2.0000000

     Dense  grid:    40651 G-vectors     FFT dimensions: (  45,  45,  45)

     Dynamical RAM for                 wfc:       0.16 MB

     Dynamical RAM for     wfc (w. buffer):       0.16 MB

     Dynamical RAM for           str. fact:       0.62 MB

     Dynamical RAM for           local pot:       0.00 MB

     Dynamical RAM for          nlocal pot:       0.16 MB

     Dynamical RAM for                qrad:       0.00 MB

     Dynamical RAM for          rho,v,vnew:       3.95 MB

     Dynamical RAM for               rhoin:       1.32 MB

     Dynamical RAM for            rho*nmix:       9.92 MB

     Dynamical RAM for           G-vectors:       2.64 MB

     Dynamical RAM for          h,s,v(r/c):       0.00 MB

     Dynamical RAM for          <psi|beta>:       0.00 MB

     Dynamical RAM for                 psi:       0.31 MB

     Dynamical RAM for                hpsi:       0.31 MB

     Dynamical RAM for                spsi:       0.31 MB

     Dynamical RAM for      wfcinit/wfcrot:       0.31 MB

     Dynamical RAM for           addusdens:       3.72 MB

     Estimated static dynamical RAM per process >      13.55 MB

     Estimated max dynamical RAM per process >      27.20 MB

     Initial potential from superposition of free atoms

     starting charge       2.0000, renormalised to       2.0000

     negative rho (up, down):  5.457E-01 0.000E+00
     Starting wfcs are    2 randomized atomic wfcs

     total cpu time spent up to now is        0.1 secs

     Self-consistent Calculation

     iteration #  1     ecut=     5.00 Ry     beta= 0.70
     Davidson diagonalization with overlap

---- Real-time Memory Report at c_bands before calling an iterative solver
            38 MiB given to the printing process from OS
             0 MiB allocation reported by mallinfo(arena+hblkhd)
           676 MiB available memory on the node where the printing process lives
------------------
     ethr =  1.00E-02,  avg # of iterations =  5.0

     negative rho (up, down):  4.337E-01 0.000E+00

     total cpu time spent up to now is        0.2 secs

     total energy              =      -2.04752166 Ry
     estimated scf accuracy    <       0.03532397 Ry

     iteration #  2     ecut=     5.00 Ry     beta= 0.70
     Davidson diagonalization with overlap

---- Real-time Memory Report at c_bands before calling an iterative solver
            45 MiB given to the printing process from OS
             0 MiB allocation reported by mallinfo(arena+hblkhd)
           663 MiB available memory on the node where the printing process lives
------------------
     ethr =  1.77E-03,  avg # of iterations =  1.0

     negative rho (up, down):  3.837E-01 0.000E+00

     total cpu time spent up to now is        0.2 secs

     total energy              =      -2.06713605 Ry
     estimated scf accuracy    <       0.00160607 Ry

     iteration #  3     ecut=     5.00 Ry     beta= 0.70
     Davidson diagonalization with overlap

---- Real-time Memory Report at c_bands before calling an iterative solver
            46 MiB given to the printing process from OS
             0 MiB allocation reported by mallinfo(arena+hblkhd)
           662 MiB available memory on the node where the printing process lives
------------------
     ethr =  8.03E-05,  avg # of iterations =  9.0

     negative rho (up, down):  3.734E-01 0.000E+00

     total cpu time spent up to now is        0.3 secs

     total energy              =      -2.07133697 Ry
     estimated scf accuracy    <       0.00002234 Ry

     iteration #  4     ecut=     5.00 Ry     beta= 0.70
     Davidson diagonalization with overlap

---- Real-time Memory Report at c_bands before calling an iterative solver
            47 MiB given to the printing process from OS
             0 MiB allocation reported by mallinfo(arena+hblkhd)
           661 MiB available memory on the node where the printing process lives
------------------
     ethr =  1.12E-06,  avg # of iterations =  7.0

     negative rho (up, down):  3.734E-01 0.000E+00

     total cpu time spent up to now is        0.4 secs

     total energy              =      -2.07155488 Ry
     estimated scf accuracy    <       0.00000518 Ry

     iteration #  5     ecut=     5.00 Ry     beta= 0.70
     Davidson diagonalization with overlap

---- Real-time Memory Report at c_bands before calling an iterative solver
            48 MiB given to the printing process from OS
             0 MiB allocation reported by mallinfo(arena+hblkhd)
           659 MiB available memory on the node where the printing process lives
------------------
     ethr =  2.59E-07,  avg # of iterations =  3.0

     negative rho (up, down):  3.734E-01 0.000E+00

     total cpu time spent up to now is        0.5 secs

     total energy              =      -2.07160667 Ry
     estimated scf accuracy    <       0.00000241 Ry

     iteration #  6     ecut=     5.00 Ry     beta= 0.70
     Davidson diagonalization with overlap

---- Real-time Memory Report at c_bands before calling an iterative solver
            50 MiB given to the printing process from OS
             0 MiB allocation reported by mallinfo(arena+hblkhd)
           658 MiB available memory on the node where the printing process lives
------------------
     ethr =  1.20E-07,  avg # of iterations =  5.0

     negative rho (up, down):  3.740E-01 0.000E+00

     total cpu time spent up to now is        0.6 secs

     total energy              =      -2.07116443 Ry
     estimated scf accuracy    <       0.00002158 Ry

     iteration #  7     ecut=     5.00 Ry     beta= 0.70
     Davidson diagonalization with overlap

---- Real-time Memory Report at c_bands before calling an iterative solver
            51 MiB given to the printing process from OS
             0 MiB allocation reported by mallinfo(arena+hblkhd)
           657 MiB available memory on the node where the printing process lives
------------------
     ethr =  1.20E-07,  avg # of iterations =  5.0

     negative rho (up, down):  3.738E-01 0.000E+00

     total cpu time spent up to now is        0.7 secs

     total energy              =      -2.07121030 Ry
     estimated scf accuracy    <       0.00003911 Ry

     iteration #  8     ecut=     5.00 Ry     beta= 0.70
     Davidson diagonalization with overlap

---- Real-time Memory Report at c_bands before calling an iterative solver
            52 MiB given to the printing process from OS
             0 MiB allocation reported by mallinfo(arena+hblkhd)
           656 MiB available memory on the node where the printing process lives
------------------
     ethr =  1.20E-07,  avg # of iterations =  4.0

     negative rho (up, down):  3.737E-01 0.000E+00

     total cpu time spent up to now is        0.7 secs

     total energy              =      -2.07152193 Ry
     estimated scf accuracy    <       0.00000218 Ry

     iteration #  9     ecut=     5.00 Ry     beta= 0.70
     Davidson diagonalization with overlap

---- Real-time Memory Report at c_bands before calling an iterative solver
            53 MiB given to the printing process from OS
             0 MiB allocation reported by mallinfo(arena+hblkhd)
           655 MiB available memory on the node where the printing process lives
------------------
     ethr =  1.09E-07,  avg # of iterations =  3.0

     negative rho (up, down):  3.733E-01 0.000E+00

     total cpu time spent up to now is        0.8 secs

     total energy              =      -2.07180966 Ry
     estimated scf accuracy    <       0.00001048 Ry

     iteration # 10     ecut=     5.00 Ry     beta= 0.70
     Davidson diagonalization with overlap

---- Real-time Memory Report at c_bands before calling an iterative solver
            55 MiB given to the printing process from OS
             0 MiB allocation reported by mallinfo(arena+hblkhd)
           653 MiB available memory on the node where the printing process lives
------------------
     ethr =  1.09E-07,  avg # of iterations =  3.0

     negative rho (up, down):  3.728E-01 0.000E+00

     total cpu time spent up to now is        0.9 secs

     total energy              =      -2.07164519 Ry
     estimated scf accuracy    <       0.00001325 Ry

     iteration # 11     ecut=     5.00 Ry     beta= 0.70
     Davidson diagonalization with overlap

---- Real-time Memory Report at c_bands before calling an iterative solver
            55 MiB given to the printing process from OS
             0 MiB allocation reported by mallinfo(arena+hblkhd)
           653 MiB available memory on the node where the printing process lives
------------------
     ethr =  1.09E-07,  avg # of iterations =  4.0

     negative rho (up, down):  3.714E-01 0.000E+00

     total cpu time spent up to now is        1.0 secs

     total energy              =      -2.07245443 Ry
     estimated scf accuracy    <       0.00000344 Ry

     iteration # 12     ecut=     5.00 Ry     beta= 0.70
     Davidson diagonalization with overlap

---- Real-time Memory Report at c_bands before calling an iterative solver
            55 MiB given to the printing process from OS
             0 MiB allocation reported by mallinfo(arena+hblkhd)
           653 MiB available memory on the node where the printing process lives
------------------
     ethr =  1.09E-07,  avg # of iterations =  4.0

     negative rho (up, down):  3.705E-01 0.000E+00

     total cpu time spent up to now is        1.1 secs

     total energy              =      -2.07274053 Ry
     estimated scf accuracy    <       0.00003501 Ry

     iteration # 13     ecut=     5.00 Ry     beta= 0.70
     Davidson diagonalization with overlap

---- Real-time Memory Report at c_bands before calling an iterative solver
            55 MiB given to the printing process from OS
             0 MiB allocation reported by mallinfo(arena+hblkhd)
           653 MiB available memory on the node where the printing process lives
------------------
     ethr =  1.09E-07,  avg # of iterations =  6.0

     negative rho (up, down):  3.767E-01 0.000E+00

     total cpu time spent up to now is        1.1 secs

     total energy              =      -2.06999112 Ry
     estimated scf accuracy    <       0.00004672 Ry

     iteration # 14     ecut=     5.00 Ry     beta= 0.70
     Davidson diagonalization with overlap

---- Real-time Memory Report at c_bands before calling an iterative solver
            55 MiB given to the printing process from OS
             0 MiB allocation reported by mallinfo(arena+hblkhd)
           653 MiB available memory on the node where the printing process lives
------------------
     ethr =  1.09E-07,  avg # of iterations =  7.0

     negative rho (up, down):  3.714E-01 0.000E+00

     total cpu time spent up to now is        1.2 secs

     total energy              =      -2.07183798 Ry
     estimated scf accuracy    <       0.00003464 Ry

     iteration # 15     ecut=     5.00 Ry     beta= 0.70
     Davidson diagonalization with overlap

---- Real-time Memory Report at c_bands before calling an iterative solver
            55 MiB given to the printing process from OS
             0 MiB allocation reported by mallinfo(arena+hblkhd)
           653 MiB available memory on the node where the printing process lives
------------------
     ethr =  1.09E-07,  avg # of iterations =  7.0

     negative rho (up, down):  3.749E-01 0.000E+00

     total cpu time spent up to now is        1.3 secs

     total energy              =      -2.07037717 Ry
     estimated scf accuracy    <       0.00005084 Ry

     iteration # 16     ecut=     5.00 Ry     beta= 0.70
     Davidson diagonalization with overlap

---- Real-time Memory Report at c_bands before calling an iterative solver
            55 MiB given to the printing process from OS
             0 MiB allocation reported by mallinfo(arena+hblkhd)
           653 MiB available memory on the node where the printing process lives
------------------
     ethr =  1.09E-07,  avg # of iterations =  7.0

     negative rho (up, down):  3.732E-01 0.000E+00

     total cpu time spent up to now is        1.4 secs

     total energy              =      -2.07151670 Ry
     estimated scf accuracy    <       0.00001314 Ry

     iteration # 17     ecut=     5.00 Ry     beta= 0.70
     Davidson diagonalization with overlap

---- Real-time Memory Report at c_bands before calling an iterative solver
            55 MiB given to the printing process from OS
             0 MiB allocation reported by mallinfo(arena+hblkhd)
           653 MiB available memory on the node where the printing process lives
------------------
     ethr =  1.09E-07,  avg # of iterations =  3.0

     negative rho (up, down):  3.738E-01 0.000E+00

     total cpu time spent up to now is        1.5 secs

     total energy              =      -2.07091241 Ry
     estimated scf accuracy    <       0.00000676 Ry

     iteration # 18     ecut=     5.00 Ry     beta= 0.70
     Davidson diagonalization with overlap

---- Real-time Memory Report at c_bands before calling an iterative solver
            55 MiB given to the printing process from OS
             0 MiB allocation reported by mallinfo(arena+hblkhd)
           653 MiB available memory on the node where the printing process lives
------------------
     ethr =  1.09E-07,  avg # of iterations =  7.0

     negative rho (up, down):  3.730E-01 0.000E+00

     total cpu time spent up to now is        1.6 secs

     total energy              =      -2.07113186 Ry
     estimated scf accuracy    <       0.00011330 Ry

     iteration # 19     ecut=     5.00 Ry     beta= 0.70
     Davidson diagonalization with overlap

---- Real-time Memory Report at c_bands before calling an iterative solver
            55 MiB given to the printing process from OS
             0 MiB allocation reported by mallinfo(arena+hblkhd)
           653 MiB available memory on the node where the printing process lives
------------------
     ethr =  1.09E-07,  avg # of iterations =  8.0

     negative rho (up, down):  3.735E-01 0.000E+00

     total cpu time spent up to now is        1.7 secs

     total energy              =      -2.07164537 Ry
     estimated scf accuracy    <       0.00000989 Ry

     iteration # 20     ecut=     5.00 Ry     beta= 0.70
     Davidson diagonalization with overlap

---- Real-time Memory Report at c_bands before calling an iterative solver
            55 MiB given to the printing process from OS
             0 MiB allocation reported by mallinfo(arena+hblkhd)
           653 MiB available memory on the node where the printing process lives
------------------
     ethr =  1.09E-07,  avg # of iterations =  4.0

     negative rho (up, down):  3.737E-01 0.000E+00

     total cpu time spent up to now is        1.8 secs

     total energy              =      -2.07166508 Ry
     estimated scf accuracy    <       0.00002159 Ry

     iteration # 21     ecut=     5.00 Ry     beta= 0.70
     Davidson diagonalization with overlap

---- Real-time Memory Report at c_bands before calling an iterative solver
            55 MiB given to the printing process from OS
             0 MiB allocation reported by mallinfo(arena+hblkhd)
           653 MiB available memory on the node where the printing process lives
------------------
     ethr =  1.09E-07,  avg # of iterations =  3.0

     negative rho (up, down):  3.736E-01 0.000E+00

     total cpu time spent up to now is        1.9 secs

     total energy              =      -2.07170834 Ry
     estimated scf accuracy    <       0.00001583 Ry

     iteration # 22     ecut=     5.00 Ry     beta= 0.70
     Davidson diagonalization with overlap

---- Real-time Memory Report at c_bands before calling an iterative solver
            55 MiB given to the printing process from OS
             0 MiB allocation reported by mallinfo(arena+hblkhd)
           653 MiB available memory on the node where the printing process lives
------------------
     ethr =  1.09E-07,  avg # of iterations =  2.0

     negative rho (up, down):  3.734E-01 0.000E+00

     total cpu time spent up to now is        1.9 secs

     total energy              =      -2.07170685 Ry
     estimated scf accuracy    <       0.00001711 Ry

     iteration # 23     ecut=     5.00 Ry     beta= 0.70
     Davidson diagonalization with overlap

---- Real-time Memory Report at c_bands before calling an iterative solver
            55 MiB given to the printing process from OS
             0 MiB allocation reported by mallinfo(arena+hblkhd)
           653 MiB available memory on the node where the printing process lives
------------------
     ethr =  1.09E-07,  avg # of iterations =  2.0

     negative rho (up, down):  3.735E-01 0.000E+00

     total cpu time spent up to now is        2.0 secs

     total energy              =      -2.07173735 Ry
     estimated scf accuracy    <       0.00001563 Ry

     iteration # 24     ecut=     5.00 Ry     beta= 0.70
     Davidson diagonalization with overlap

---- Real-time Memory Report at c_bands before calling an iterative solver
            55 MiB given to the printing process from OS
             0 MiB allocation reported by mallinfo(arena+hblkhd)
           653 MiB available memory on the node where the printing process lives
------------------
     ethr =  1.09E-07,  avg # of iterations =  3.0

     negative rho (up, down):  3.735E-01 0.000E+00

     total cpu time spent up to now is        2.1 secs

     total energy              =      -2.07177661 Ry
     estimated scf accuracy    <       0.00002045 Ry

     iteration # 25     ecut=     5.00 Ry     beta= 0.70
     Davidson diagonalization with overlap

---- Real-time Memory Report at c_bands before calling an iterative solver
            55 MiB given to the printing process from OS
             0 MiB allocation reported by mallinfo(arena+hblkhd)
           653 MiB available memory on the node where the printing process lives
------------------
     ethr =  1.09E-07,  avg # of iterations =  2.0

     negative rho (up, down):  3.736E-01 0.000E+00

     total cpu time spent up to now is        2.2 secs

     total energy              =      -2.07167627 Ry
     estimated scf accuracy    <       0.00002483 Ry

     iteration # 26     ecut=     5.00 Ry     beta= 0.70
     Davidson diagonalization with overlap

---- Real-time Memory Report at c_bands before calling an iterative solver
            55 MiB given to the printing process from OS
             0 MiB allocation reported by mallinfo(arena+hblkhd)
           653 MiB available memory on the node where the printing process lives
------------------
     ethr =  1.09E-07,  avg # of iterations =  3.0

     negative rho (up, down):  3.736E-01 0.000E+00

     total cpu time spent up to now is        2.2 secs

     total energy              =      -2.07125121 Ry
     estimated scf accuracy    <       0.00001754 Ry

     iteration # 27     ecut=     5.00 Ry     beta= 0.70
     Davidson diagonalization with overlap

---- Real-time Memory Report at c_bands before calling an iterative solver
            55 MiB given to the printing process from OS
             0 MiB allocation reported by mallinfo(arena+hblkhd)
           653 MiB available memory on the node where the printing process lives
------------------
     ethr =  1.09E-07,  avg # of iterations =  8.0

     negative rho (up, down):  3.737E-01 0.000E+00

     total cpu time spent up to now is        2.3 secs

     total energy              =      -2.07224319 Ry
     estimated scf accuracy    <       0.00016768 Ry

     iteration # 28     ecut=     5.00 Ry     beta= 0.70
     Davidson diagonalization with overlap

---- Real-time Memory Report at c_bands before calling an iterative solver
            55 MiB given to the printing process from OS
             0 MiB allocation reported by mallinfo(arena+hblkhd)
           653 MiB available memory on the node where the printing process lives
------------------
     ethr =  1.09E-07,  avg # of iterations =  4.0

     negative rho (up, down):  3.748E-01 0.000E+00

     total cpu time spent up to now is        2.4 secs

     total energy              =      -2.06948438 Ry
     estimated scf accuracy    <       0.00019534 Ry

     iteration # 29     ecut=     5.00 Ry     beta= 0.70
     Davidson diagonalization with overlap

---- Real-time Memory Report at c_bands before calling an iterative solver
            55 MiB given to the printing process from OS
             0 MiB allocation reported by mallinfo(arena+hblkhd)
           653 MiB available memory on the node where the printing process lives
------------------
     ethr =  1.09E-07,  avg # of iterations = 14.0

     negative rho (up, down):  3.741E-01 0.000E+00

     total cpu time spent up to now is        2.5 secs

     total energy              =      -2.07050644 Ry
     estimated scf accuracy    <       0.00005394 Ry

     iteration # 30     ecut=     5.00 Ry     beta= 0.70
     Davidson diagonalization with overlap

---- Real-time Memory Report at c_bands before calling an iterative solver
            55 MiB given to the printing process from OS
             0 MiB allocation reported by mallinfo(arena+hblkhd)
           653 MiB available memory on the node where the printing process lives
------------------
     ethr =  1.09E-07,  avg # of iterations =  8.0

     negative rho (up, down):  3.727E-01 0.000E+00

     total cpu time spent up to now is        2.6 secs

     total energy              =      -2.07186556 Ry
     estimated scf accuracy    <       0.00002417 Ry

     iteration # 31     ecut=     5.00 Ry     beta= 0.70
     Davidson diagonalization with overlap

---- Real-time Memory Report at c_bands before calling an iterative solver
            55 MiB given to the printing process from OS
             0 MiB allocation reported by mallinfo(arena+hblkhd)
           653 MiB available memory on the node where the printing process lives
------------------
     ethr =  1.09E-07,  avg # of iterations =  4.0

     negative rho (up, down):  3.733E-01 0.000E+00

     total cpu time spent up to now is        2.7 secs

     total energy              =      -2.07139767 Ry
     estimated scf accuracy    <       0.00001855 Ry

     iteration # 32     ecut=     5.00 Ry     beta= 0.70
     Davidson diagonalization with overlap

---- Real-time Memory Report at c_bands before calling an iterative solver
            55 MiB given to the printing process from OS
             0 MiB allocation reported by mallinfo(arena+hblkhd)
           653 MiB available memory on the node where the printing process lives
------------------
     ethr =  1.09E-07,  avg # of iterations =  4.0

     negative rho (up, down):  3.733E-01 0.000E+00

     total cpu time spent up to now is        2.8 secs

     total energy              =      -2.07200984 Ry
     estimated scf accuracy    <       0.00002394 Ry

     iteration # 33     ecut=     5.00 Ry     beta= 0.70
     Davidson diagonalization with overlap

---- Real-time Memory Report at c_bands before calling an iterative solver
            55 MiB given to the printing process from OS
             0 MiB allocation reported by mallinfo(arena+hblkhd)
           653 MiB available memory on the node where the printing process lives
------------------
     ethr =  1.09E-07,  avg # of iterations =  8.0

     negative rho (up, down):  3.733E-01 0.000E+00

     total cpu time spent up to now is        2.9 secs

     total energy              =      -2.07201347 Ry
     estimated scf accuracy    <       0.00018758 Ry

     iteration # 34     ecut=     5.00 Ry     beta= 0.70
     Davidson diagonalization with overlap

---- Real-time Memory Report at c_bands before calling an iterative solver
            55 MiB given to the printing process from OS
             0 MiB allocation reported by mallinfo(arena+hblkhd)
           653 MiB available memory on the node where the printing process lives
------------------
     ethr =  1.09E-07,  avg # of iterations =  4.0

     negative rho (up, down):  3.732E-01 0.000E+00

     total cpu time spent up to now is        3.0 secs

     total energy              =      -2.07397460 Ry
     estimated scf accuracy    <       0.00012512 Ry

     iteration # 35     ecut=     5.00 Ry     beta= 0.70
     Davidson diagonalization with overlap

---- Real-time Memory Report at c_bands before calling an iterative solver
            55 MiB given to the printing process from OS
             0 MiB allocation reported by mallinfo(arena+hblkhd)
           653 MiB available memory on the node where the printing process lives
------------------
     c_bands:  1 eigenvalues not converged
     ethr =  1.09E-07,  avg # of iterations = 20.0

     negative rho (up, down):  3.733E-01 0.000E+00

     total cpu time spent up to now is        3.1 secs

     total energy              =      -2.06913964 Ry
     estimated scf accuracy    <       0.00094897 Ry

     iteration # 36     ecut=     5.00 Ry     beta= 0.70
     Davidson diagonalization with overlap

---- Real-time Memory Report at c_bands before calling an iterative solver
            55 MiB given to the printing process from OS
             0 MiB allocation reported by mallinfo(arena+hblkhd)
           653 MiB available memory on the node where the printing process lives
------------------
     ethr =  1.09E-07,  avg # of iterations = 10.0

     negative rho (up, down):  3.733E-01 0.000E+00

     total cpu time spent up to now is        3.2 secs

     total energy              =      -2.07136307 Ry
     estimated scf accuracy    <       0.00007980 Ry

     iteration # 37     ecut=     5.00 Ry     beta= 0.70
     Davidson diagonalization with overlap

---- Real-time Memory Report at c_bands before calling an iterative solver
            55 MiB given to the printing process from OS
             0 MiB allocation reported by mallinfo(arena+hblkhd)
           653 MiB available memory on the node where the printing process lives
------------------
     ethr =  1.09E-07,  avg # of iterations =  4.0

     negative rho (up, down):  3.732E-01 0.000E+00

     total cpu time spent up to now is        3.3 secs

     total energy              =      -2.07165369 Ry
     estimated scf accuracy    <       0.00000635 Ry

     iteration # 38     ecut=     5.00 Ry     beta= 0.70
     Davidson diagonalization with overlap

---- Real-time Memory Report at c_bands before calling an iterative solver
            55 MiB given to the printing process from OS
             0 MiB allocation reported by mallinfo(arena+hblkhd)
           653 MiB available memory on the node where the printing process lives
------------------
     ethr =  1.09E-07,  avg # of iterations = 13.0

     negative rho (up, down):  3.732E-01 0.000E+00

     total cpu time spent up to now is        3.4 secs

     total energy              =      -2.07158960 Ry
     estimated scf accuracy    <       0.00000077 Ry

     iteration # 39     ecut=     5.00 Ry     beta= 0.70
     Davidson diagonalization with overlap

---- Real-time Memory Report at c_bands before calling an iterative solver
            55 MiB given to the printing process from OS
             0 MiB allocation reported by mallinfo(arena+hblkhd)
           653 MiB available memory on the node where the printing process lives
------------------
     ethr =  3.85E-08,  avg # of iterations =  4.0

     negative rho (up, down):  3.733E-01 0.000E+00

     total cpu time spent up to now is        3.4 secs

     total energy              =      -2.07160958 Ry
     estimated scf accuracy    <       0.00000739 Ry

     iteration # 40     ecut=     5.00 Ry     beta= 0.70
     Davidson diagonalization with overlap

---- Real-time Memory Report at c_bands before calling an iterative solver
            55 MiB given to the printing process from OS
             0 MiB allocation reported by mallinfo(arena+hblkhd)
           653 MiB available memory on the node where the printing process lives
------------------
     ethr =  3.85E-08,  avg # of iterations =  4.0

     negative rho (up, down):  3.732E-01 0.000E+00

     total cpu time spent up to now is        3.5 secs

     total energy              =      -2.07165615 Ry
     estimated scf accuracy    <       0.00000623 Ry

     iteration # 41     ecut=     5.00 Ry     beta= 0.70
     Davidson diagonalization with overlap

---- Real-time Memory Report at c_bands before calling an iterative solver
            55 MiB given to the printing process from OS
             0 MiB allocation reported by mallinfo(arena+hblkhd)
           653 MiB available memory on the node where the printing process lives
------------------
     ethr =  3.85E-08,  avg # of iterations =  3.0

     negative rho (up, down):  3.732E-01 0.000E+00

     total cpu time spent up to now is        3.6 secs

     total energy              =      -2.07163402 Ry
     estimated scf accuracy    <       0.00000414 Ry

     iteration # 42     ecut=     5.00 Ry     beta= 0.70
     Davidson diagonalization with overlap

---- Real-time Memory Report at c_bands before calling an iterative solver
            55 MiB given to the printing process from OS
             0 MiB allocation reported by mallinfo(arena+hblkhd)
           653 MiB available memory on the node where the printing process lives
------------------
     ethr =  3.85E-08,  avg # of iterations =  2.0

     negative rho (up, down):  3.733E-01 0.000E+00

     total cpu time spent up to now is        3.7 secs

     total energy              =      -2.07160634 Ry
     estimated scf accuracy    <       0.00000339 Ry

     iteration # 43     ecut=     5.00 Ry     beta= 0.70
     Davidson diagonalization with overlap

---- Real-time Memory Report at c_bands before calling an iterative solver
            55 MiB given to the printing process from OS
             0 MiB allocation reported by mallinfo(arena+hblkhd)
           653 MiB available memory on the node where the printing process lives
------------------
     ethr =  3.85E-08,  avg # of iterations =  3.0

     negative rho (up, down):  3.733E-01 0.000E+00

     total cpu time spent up to now is        3.7 secs

     total energy              =      -2.07160280 Ry
     estimated scf accuracy    <       0.00000863 Ry

     iteration # 44     ecut=     5.00 Ry     beta= 0.70
     Davidson diagonalization with overlap

---- Real-time Memory Report at c_bands before calling an iterative solver
            55 MiB given to the printing process from OS
             0 MiB allocation reported by mallinfo(arena+hblkhd)
           653 MiB available memory on the node where the printing process lives
------------------
     ethr =  3.85E-08,  avg # of iterations =  3.0

     negative rho (up, down):  3.732E-01 0.000E+00

     total cpu time spent up to now is        3.8 secs

     total energy              =      -2.07174784 Ry
     estimated scf accuracy    <       0.00000739 Ry

     iteration # 45     ecut=     5.00 Ry     beta= 0.70
     Davidson diagonalization with overlap

---- Real-time Memory Report at c_bands before calling an iterative solver
            55 MiB given to the printing process from OS
             0 MiB allocation reported by mallinfo(arena+hblkhd)
           653 MiB available memory on the node where the printing process lives
------------------
     ethr =  3.85E-08,  avg # of iterations =  3.0

     negative rho (up, down):  3.728E-01 0.000E+00

     total cpu time spent up to now is        3.9 secs

     total energy              =      -2.07165226 Ry
     estimated scf accuracy    <       0.00000919 Ry

     iteration # 46     ecut=     5.00 Ry     beta= 0.70
     Davidson diagonalization with overlap

---- Real-time Memory Report at c_bands before calling an iterative solver
            55 MiB given to the printing process from OS
             0 MiB allocation reported by mallinfo(arena+hblkhd)
           653 MiB available memory on the node where the printing process lives
------------------
     ethr =  3.85E-08,  avg # of iterations =  9.0

     negative rho (up, down):  3.731E-01 0.000E+00

     total cpu time spent up to now is        4.0 secs

     total energy              =      -2.07022237 Ry
     estimated scf accuracy    <       0.00014400 Ry

     iteration # 47     ecut=     5.00 Ry     beta= 0.70
     Davidson diagonalization with overlap

---- Real-time Memory Report at c_bands before calling an iterative solver
            55 MiB given to the printing process from OS
             0 MiB allocation reported by mallinfo(arena+hblkhd)
           653 MiB available memory on the node where the printing process lives
------------------
     ethr =  3.85E-08,  avg # of iterations =  9.0

     negative rho (up, down):  3.731E-01 0.000E+00

     total cpu time spent up to now is        4.1 secs

     total energy              =      -2.07181450 Ry
     estimated scf accuracy    <       0.00001211 Ry

     iteration # 48     ecut=     5.00 Ry     beta= 0.70
     Davidson diagonalization with overlap

---- Real-time Memory Report at c_bands before calling an iterative solver
            55 MiB given to the printing process from OS
             0 MiB allocation reported by mallinfo(arena+hblkhd)
           653 MiB available memory on the node where the printing process lives
------------------
     ethr =  3.85E-08,  avg # of iterations =  2.0

     negative rho (up, down):  3.731E-01 0.000E+00

     total cpu time spent up to now is        4.2 secs

     total energy              =      -2.07181985 Ry
     estimated scf accuracy    <       0.00001358 Ry

     iteration # 49     ecut=     5.00 Ry     beta= 0.70
     Davidson diagonalization with overlap

---- Real-time Memory Report at c_bands before calling an iterative solver
            55 MiB given to the printing process from OS
             0 MiB allocation reported by mallinfo(arena+hblkhd)
           653 MiB available memory on the node where the printing process lives
------------------
     ethr =  3.85E-08,  avg # of iterations =  1.0

     negative rho (up, down):  3.730E-01 0.000E+00

     total cpu time spent up to now is        4.2 secs

     total energy              =      -2.07178352 Ry
     estimated scf accuracy    <       0.00001392 Ry

     iteration # 50     ecut=     5.00 Ry     beta= 0.70
     Davidson diagonalization with overlap

---- Real-time Memory Report at c_bands before calling an iterative solver
            55 MiB given to the printing process from OS
             0 MiB allocation reported by mallinfo(arena+hblkhd)
           653 MiB available memory on the node where the printing process lives
------------------
     ethr =  3.85E-08,  avg # of iterations =  4.0

     negative rho (up, down):  3.731E-01 0.000E+00

     total cpu time spent up to now is        4.3 secs

     total energy              =      -2.07171809 Ry
     estimated scf accuracy    <       0.00001047 Ry

     iteration # 51     ecut=     5.00 Ry     beta= 0.70
     Davidson diagonalization with overlap

---- Real-time Memory Report at c_bands before calling an iterative solver
            55 MiB given to the printing process from OS
             0 MiB allocation reported by mallinfo(arena+hblkhd)
           653 MiB available memory on the node where the printing process lives
------------------
     ethr =  3.85E-08,  avg # of iterations =  4.0

     negative rho (up, down):  3.730E-01 0.000E+00

     total cpu time spent up to now is        4.4 secs

     total energy              =      -2.07167602 Ry
     estimated scf accuracy    <       0.00001609 Ry

     iteration # 52     ecut=     5.00 Ry     beta= 0.70
     Davidson diagonalization with overlap

---- Real-time Memory Report at c_bands before calling an iterative solver
            55 MiB given to the printing process from OS
             0 MiB allocation reported by mallinfo(arena+hblkhd)
           653 MiB available memory on the node where the printing process lives
------------------
     ethr =  3.85E-08,  avg # of iterations =  4.0

     negative rho (up, down):  3.731E-01 0.000E+00

     total cpu time spent up to now is        4.5 secs

     total energy              =      -2.07166752 Ry
     estimated scf accuracy    <       0.00000982 Ry

     iteration # 53     ecut=     5.00 Ry     beta= 0.70
     Davidson diagonalization with overlap

---- Real-time Memory Report at c_bands before calling an iterative solver
            55 MiB given to the printing process from OS
             0 MiB allocation reported by mallinfo(arena+hblkhd)
           653 MiB available memory on the node where the printing process lives
------------------
     ethr =  3.85E-08,  avg # of iterations =  3.0

     negative rho (up, down):  3.734E-01 0.000E+00

     total cpu time spent up to now is        4.6 secs

     total energy              =      -2.07162550 Ry
     estimated scf accuracy    <       0.00000595 Ry

     iteration # 54     ecut=     5.00 Ry     beta= 0.70
     Davidson diagonalization with overlap

---- Real-time Memory Report at c_bands before calling an iterative solver
            55 MiB given to the printing process from OS
             0 MiB allocation reported by mallinfo(arena+hblkhd)
           653 MiB available memory on the node where the printing process lives
------------------
     ethr =  3.85E-08,  avg # of iterations =  5.0

     negative rho (up, down):  3.734E-01 0.000E+00

     total cpu time spent up to now is        4.6 secs

     total energy              =      -2.07176288 Ry
     estimated scf accuracy    <       0.00002440 Ry

     iteration # 55     ecut=     5.00 Ry     beta= 0.70
     Davidson diagonalization with overlap

---- Real-time Memory Report at c_bands before calling an iterative solver
            55 MiB given to the printing process from OS
             0 MiB allocation reported by mallinfo(arena+hblkhd)
           653 MiB available memory on the node where the printing process lives
------------------
     ethr =  3.85E-08,  avg # of iterations =  4.0

     negative rho (up, down):  3.734E-01 0.000E+00

     total cpu time spent up to now is        4.7 secs

     total energy              =      -2.07160613 Ry
     estimated scf accuracy    <       0.00000773 Ry

     iteration # 56     ecut=     5.00 Ry     beta= 0.70
     Davidson diagonalization with overlap

---- Real-time Memory Report at c_bands before calling an iterative solver
            55 MiB given to the printing process from OS
             0 MiB allocation reported by mallinfo(arena+hblkhd)
           653 MiB available memory on the node where the printing process lives
------------------
     ethr =  3.85E-08,  avg # of iterations =  5.0

     negative rho (up, down):  3.734E-01 0.000E+00

     total cpu time spent up to now is        4.8 secs

     total energy              =      -2.07166814 Ry
     estimated scf accuracy    <       0.00002540 Ry

     iteration # 57     ecut=     5.00 Ry     beta= 0.70
     Davidson diagonalization with overlap

---- Real-time Memory Report at c_bands before calling an iterative solver
            55 MiB given to the printing process from OS
             0 MiB allocation reported by mallinfo(arena+hblkhd)
           653 MiB available memory on the node where the printing process lives
------------------
     ethr =  3.85E-08,  avg # of iterations =  4.0

     negative rho (up, down):  3.734E-01 0.000E+00

     total cpu time spent up to now is        4.9 secs

     total energy              =      -2.07160334 Ry
     estimated scf accuracy    <       0.00001242 Ry

     iteration # 58     ecut=     5.00 Ry     beta= 0.70
     Davidson diagonalization with overlap

---- Real-time Memory Report at c_bands before calling an iterative solver
            55 MiB given to the printing process from OS
             0 MiB allocation reported by mallinfo(arena+hblkhd)
           653 MiB available memory on the node where the printing process lives
------------------
     ethr =  3.85E-08,  avg # of iterations =  5.0

     negative rho (up, down):  3.733E-01 0.000E+00

     total cpu time spent up to now is        5.0 secs

     total energy              =      -2.07134387 Ry
     estimated scf accuracy    <       0.00003286 Ry

     iteration # 59     ecut=     5.00 Ry     beta= 0.70
     Davidson diagonalization with overlap

---- Real-time Memory Report at c_bands before calling an iterative solver
            55 MiB given to the printing process from OS
             0 MiB allocation reported by mallinfo(arena+hblkhd)
           653 MiB available memory on the node where the printing process lives
------------------
     ethr =  3.85E-08,  avg # of iterations =  5.0

     negative rho (up, down):  3.733E-01 0.000E+00

     total cpu time spent up to now is        5.0 secs

     total energy              =      -2.07158373 Ry
     estimated scf accuracy    <       0.00000225 Ry

     iteration # 60     ecut=     5.00 Ry     beta= 0.70
     Davidson diagonalization with overlap

---- Real-time Memory Report at c_bands before calling an iterative solver
            55 MiB given to the printing process from OS
             0 MiB allocation reported by mallinfo(arena+hblkhd)
           653 MiB available memory on the node where the printing process lives
------------------
     ethr =  3.85E-08,  avg # of iterations =  3.0

     negative rho (up, down):  3.734E-01 0.000E+00

     total cpu time spent up to now is        5.1 secs

     total energy              =      -2.07149343 Ry
     estimated scf accuracy    <       0.00000429 Ry

     iteration # 61     ecut=     5.00 Ry     beta= 0.70
     Davidson diagonalization with overlap

---- Real-time Memory Report at c_bands before calling an iterative solver
            55 MiB given to the printing process from OS
             0 MiB allocation reported by mallinfo(arena+hblkhd)
           653 MiB available memory on the node where the printing process lives
------------------
     ethr =  3.85E-08,  avg # of iterations =  7.0

     negative rho (up, down):  3.733E-01 0.000E+00

     total cpu time spent up to now is        5.2 secs

     total energy              =      -2.07143827 Ry
     estimated scf accuracy    <       0.00001950 Ry

     iteration # 62     ecut=     5.00 Ry     beta= 0.70
     Davidson diagonalization with overlap

---- Real-time Memory Report at c_bands before calling an iterative solver
            55 MiB given to the printing process from OS
             0 MiB allocation reported by mallinfo(arena+hblkhd)
           653 MiB available memory on the node where the printing process lives
------------------
     ethr =  3.85E-08,  avg # of iterations =  7.0

     negative rho (up, down):  3.733E-01 0.000E+00

     total cpu time spent up to now is        5.3 secs

     total energy              =      -2.07150617 Ry
     estimated scf accuracy    <       0.00001219 Ry

     iteration # 63     ecut=     5.00 Ry     beta= 0.70
     Davidson diagonalization with overlap

---- Real-time Memory Report at c_bands before calling an iterative solver
            55 MiB given to the printing process from OS
             0 MiB allocation reported by mallinfo(arena+hblkhd)
           653 MiB available memory on the node where the printing process lives
------------------
     ethr =  3.85E-08,  avg # of iterations =  4.0

     negative rho (up, down):  3.733E-01 0.000E+00

     total cpu time spent up to now is        5.4 secs

     total energy              =      -2.07155393 Ry
     estimated scf accuracy    <       0.00000316 Ry

     iteration # 64     ecut=     5.00 Ry     beta= 0.70
     Davidson diagonalization with overlap

---- Real-time Memory Report at c_bands before calling an iterative solver
            55 MiB given to the printing process from OS
             0 MiB allocation reported by mallinfo(arena+hblkhd)
           653 MiB available memory on the node where the printing process lives
------------------
     ethr =  3.85E-08,  avg # of iterations =  1.0

     negative rho (up, down):  3.734E-01 0.000E+00

     total cpu time spent up to now is        5.4 secs

     total energy              =      -2.07157560 Ry
     estimated scf accuracy    <       0.00000322 Ry

     iteration # 65     ecut=     5.00 Ry     beta= 0.70
     Davidson diagonalization with overlap

---- Real-time Memory Report at c_bands before calling an iterative solver
            55 MiB given to the printing process from OS
             0 MiB allocation reported by mallinfo(arena+hblkhd)
           653 MiB available memory on the node where the printing process lives
------------------
     ethr =  3.85E-08,  avg # of iterations =  3.0

     negative rho (up, down):  3.734E-01 0.000E+00

     total cpu time spent up to now is        5.5 secs

     total energy              =      -2.07162657 Ry
     estimated scf accuracy    <       0.00000549 Ry

     iteration # 66     ecut=     5.00 Ry     beta= 0.70
     Davidson diagonalization with overlap

---- Real-time Memory Report at c_bands before calling an iterative solver
            55 MiB given to the printing process from OS
             0 MiB allocation reported by mallinfo(arena+hblkhd)
           653 MiB available memory on the node where the printing process lives
------------------
     ethr =  3.85E-08,  avg # of iterations =  4.0

     negative rho (up, down):  3.734E-01 0.000E+00

     total cpu time spent up to now is        5.6 secs

     total energy              =      -2.07167618 Ry
     estimated scf accuracy    <       0.00000540 Ry

     iteration # 67     ecut=     5.00 Ry     beta= 0.70
     Davidson diagonalization with overlap

---- Real-time Memory Report at c_bands before calling an iterative solver
            55 MiB given to the printing process from OS
             0 MiB allocation reported by mallinfo(arena+hblkhd)
           653 MiB available memory on the node where the printing process lives
------------------
     ethr =  3.85E-08,  avg # of iterations =  2.0

     negative rho (up, down):  3.733E-01 0.000E+00

     total cpu time spent up to now is        5.7 secs

     total energy              =      -2.07170826 Ry
     estimated scf accuracy    <       0.00000531 Ry

     iteration # 68     ecut=     5.00 Ry     beta= 0.70
     Davidson diagonalization with overlap

---- Real-time Memory Report at c_bands before calling an iterative solver
            55 MiB given to the printing process from OS
             0 MiB allocation reported by mallinfo(arena+hblkhd)
           653 MiB available memory on the node where the printing process lives
------------------
     ethr =  3.85E-08,  avg # of iterations =  3.0

     negative rho (up, down):  3.733E-01 0.000E+00

     total cpu time spent up to now is        5.7 secs

     total energy              =      -2.07167077 Ry
     estimated scf accuracy    <       0.00000514 Ry

     iteration # 69     ecut=     5.00 Ry     beta= 0.70
     Davidson diagonalization with overlap

---- Real-time Memory Report at c_bands before calling an iterative solver
            55 MiB given to the printing process from OS
             0 MiB allocation reported by mallinfo(arena+hblkhd)
           653 MiB available memory on the node where the printing process lives
------------------
     ethr =  3.85E-08,  avg # of iterations =  3.0

     negative rho (up, down):  3.734E-01 0.000E+00

     total cpu time spent up to now is        5.8 secs

     total energy              =      -2.07154137 Ry
     estimated scf accuracy    <       0.00000465 Ry

     iteration # 70     ecut=     5.00 Ry     beta= 0.70
     Davidson diagonalization with overlap

---- Real-time Memory Report at c_bands before calling an iterative solver
            55 MiB given to the printing process from OS
             0 MiB allocation reported by mallinfo(arena+hblkhd)
           653 MiB available memory on the node where the printing process lives
------------------
     ethr =  3.85E-08,  avg # of iterations =  3.0

     negative rho (up, down):  3.733E-01 0.000E+00

     total cpu time spent up to now is        5.9 secs

     total energy              =      -2.07154226 Ry
     estimated scf accuracy    <       0.00000273 Ry

     iteration # 71     ecut=     5.00 Ry     beta= 0.70
     Davidson diagonalization with overlap

---- Real-time Memory Report at c_bands before calling an iterative solver
            55 MiB given to the printing process from OS
             0 MiB allocation reported by mallinfo(arena+hblkhd)
           653 MiB available memory on the node where the printing process lives
------------------
     ethr =  3.85E-08,  avg # of iterations =  2.0

     negative rho (up, down):  3.733E-01 0.000E+00

     total cpu time spent up to now is        6.0 secs

     total energy              =      -2.07151082 Ry
     estimated scf accuracy    <       0.00000171 Ry

     iteration # 72     ecut=     5.00 Ry     beta= 0.70
     Davidson diagonalization with overlap

---- Real-time Memory Report at c_bands before calling an iterative solver
            55 MiB given to the printing process from OS
             0 MiB allocation reported by mallinfo(arena+hblkhd)
           653 MiB available memory on the node where the printing process lives
------------------
     ethr =  3.85E-08,  avg # of iterations =  3.0

     negative rho (up, down):  3.733E-01 0.000E+00

     total cpu time spent up to now is        6.0 secs

     total energy              =      -2.07155155 Ry
     estimated scf accuracy    <       0.00000010 Ry

     iteration # 73     ecut=     5.00 Ry     beta= 0.70
     Davidson diagonalization with overlap

---- Real-time Memory Report at c_bands before calling an iterative solver
            55 MiB given to the printing process from OS
             0 MiB allocation reported by mallinfo(arena+hblkhd)
           653 MiB available memory on the node where the printing process lives
------------------
     ethr =  4.99E-09,  avg # of iterations =  5.0

     negative rho (up, down):  3.733E-01 0.000E+00

     total cpu time spent up to now is        6.1 secs

     total energy              =      -2.07171779 Ry
     estimated scf accuracy    <       0.00001132 Ry

     iteration # 74     ecut=     5.00 Ry     beta= 0.70
     Davidson diagonalization with overlap

---- Real-time Memory Report at c_bands before calling an iterative solver
            55 MiB given to the printing process from OS
             0 MiB allocation reported by mallinfo(arena+hblkhd)
           653 MiB available memory on the node where the printing process lives
------------------
     ethr =  4.99E-09,  avg # of iterations =  3.0

     negative rho (up, down):  3.733E-01 0.000E+00

     total cpu time spent up to now is        6.2 secs

     total energy              =      -2.07155416 Ry
     estimated scf accuracy    <       0.00001141 Ry

     iteration # 75     ecut=     5.00 Ry     beta= 0.70
     Davidson diagonalization with overlap

---- Real-time Memory Report at c_bands before calling an iterative solver
            55 MiB given to the printing process from OS
             0 MiB allocation reported by mallinfo(arena+hblkhd)
           653 MiB available memory on the node where the printing process lives
------------------
     ethr =  4.99E-09,  avg # of iterations =  5.0

     negative rho (up, down):  3.733E-01 0.000E+00

     total cpu time spent up to now is        6.3 secs

     total energy              =      -2.07155914 Ry
     estimated scf accuracy    <       0.00000015 Ry

     iteration # 76     ecut=     5.00 Ry     beta= 0.70
     Davidson diagonalization with overlap

---- Real-time Memory Report at c_bands before calling an iterative solver
            55 MiB given to the printing process from OS
             0 MiB allocation reported by mallinfo(arena+hblkhd)
           653 MiB available memory on the node where the printing process lives
------------------
     ethr =  4.99E-09,  avg # of iterations =  5.0

     negative rho (up, down):  3.734E-01 0.000E+00

     total cpu time spent up to now is        6.4 secs

     total energy              =      -2.07150764 Ry
     estimated scf accuracy    <       0.00001192 Ry

     iteration # 77     ecut=     5.00 Ry     beta= 0.70
     Davidson diagonalization with overlap

---- Real-time Memory Report at c_bands before calling an iterative solver
            55 MiB given to the printing process from OS
             0 MiB allocation reported by mallinfo(arena+hblkhd)
           653 MiB available memory on the node where the printing process lives
------------------
     ethr =  4.99E-09,  avg # of iterations =  5.0

     negative rho (up, down):  3.733E-01 0.000E+00

     total cpu time spent up to now is        6.4 secs

     total energy              =      -2.07169616 Ry
     estimated scf accuracy    <       0.00000255 Ry

     iteration # 78     ecut=     5.00 Ry     beta= 0.70
     Davidson diagonalization with overlap

---- Real-time Memory Report at c_bands before calling an iterative solver
            55 MiB given to the printing process from OS
             0 MiB allocation reported by mallinfo(arena+hblkhd)
           653 MiB available memory on the node where the printing process lives
------------------
     ethr =  4.99E-09,  avg # of iterations =  5.0

     negative rho (up, down):  3.733E-01 0.000E+00

     total cpu time spent up to now is        6.5 secs

     total energy              =      -2.07151443 Ry
     estimated scf accuracy    <       0.00001150 Ry

     iteration # 79     ecut=     5.00 Ry     beta= 0.70
     Davidson diagonalization with overlap

---- Real-time Memory Report at c_bands before calling an iterative solver
            55 MiB given to the printing process from OS
             0 MiB allocation reported by mallinfo(arena+hblkhd)
           653 MiB available memory on the node where the printing process lives
------------------
     ethr =  4.99E-09,  avg # of iterations =  5.0

     negative rho (up, down):  3.735E-01 0.000E+00

     total cpu time spent up to now is        6.6 secs

     total energy              =      -2.07151991 Ry
     estimated scf accuracy    <       0.00000068 Ry

     iteration # 80     ecut=     5.00 Ry     beta= 0.70
     Davidson diagonalization with overlap

---- Real-time Memory Report at c_bands before calling an iterative solver
            55 MiB given to the printing process from OS
             0 MiB allocation reported by mallinfo(arena+hblkhd)
           653 MiB available memory on the node where the printing process lives
------------------
     ethr =  4.99E-09,  avg # of iterations =  5.0

     negative rho (up, down):  3.733E-01 0.000E+00

     total cpu time spent up to now is        6.7 secs

     total energy              =      -2.07171391 Ry
     estimated scf accuracy    <       0.00000543 Ry

     iteration # 81     ecut=     5.00 Ry     beta= 0.70
     Davidson diagonalization with overlap

---- Real-time Memory Report at c_bands before calling an iterative solver
            55 MiB given to the printing process from OS
             0 MiB allocation reported by mallinfo(arena+hblkhd)
           653 MiB available memory on the node where the printing process lives
------------------
     ethr =  4.99E-09,  avg # of iterations =  4.0

     negative rho (up, down):  3.733E-01 0.000E+00

     total cpu time spent up to now is        6.8 secs

     total energy              =      -2.07153496 Ry
     estimated scf accuracy    <       0.00001227 Ry

     iteration # 82     ecut=     5.00 Ry     beta= 0.70
     Davidson diagonalization with overlap

---- Real-time Memory Report at c_bands before calling an iterative solver
            55 MiB given to the printing process from OS
             0 MiB allocation reported by mallinfo(arena+hblkhd)
           653 MiB available memory on the node where the printing process lives
------------------
     ethr =  4.99E-09,  avg # of iterations =  5.0

     negative rho (up, down):  3.734E-01 0.000E+00

     total cpu time spent up to now is        6.8 secs

     total energy              =      -2.07164162 Ry
     estimated scf accuracy    <       0.00000339 Ry

     iteration # 83     ecut=     5.00 Ry     beta= 0.70
     Davidson diagonalization with overlap

---- Real-time Memory Report at c_bands before calling an iterative solver
            55 MiB given to the printing process from OS
             0 MiB allocation reported by mallinfo(arena+hblkhd)
           653 MiB available memory on the node where the printing process lives
------------------
     ethr =  4.99E-09,  avg # of iterations =  4.0

     negative rho (up, down):  3.734E-01 0.000E+00

     total cpu time spent up to now is        6.9 secs

     total energy              =      -2.07165624 Ry
     estimated scf accuracy    <       0.00000583 Ry

     iteration # 84     ecut=     5.00 Ry     beta= 0.70
     Davidson diagonalization with overlap

---- Real-time Memory Report at c_bands before calling an iterative solver
            55 MiB given to the printing process from OS
             0 MiB allocation reported by mallinfo(arena+hblkhd)
           653 MiB available memory on the node where the printing process lives
------------------
     ethr =  4.99E-09,  avg # of iterations =  1.0

     negative rho (up, down):  3.734E-01 0.000E+00

     total cpu time spent up to now is        7.0 secs

     total energy              =      -2.07165452 Ry
     estimated scf accuracy    <       0.00000580 Ry

     iteration # 85     ecut=     5.00 Ry     beta= 0.70
     Davidson diagonalization with overlap

---- Real-time Memory Report at c_bands before calling an iterative solver
            55 MiB given to the printing process from OS
             0 MiB allocation reported by mallinfo(arena+hblkhd)
           653 MiB available memory on the node where the printing process lives
------------------
     ethr =  4.99E-09,  avg # of iterations =  2.0

     negative rho (up, down):  3.734E-01 0.000E+00

     total cpu time spent up to now is        7.1 secs

     total energy              =      -2.07166458 Ry
     estimated scf accuracy    <       0.00000581 Ry

     iteration # 86     ecut=     5.00 Ry     beta= 0.70
     Davidson diagonalization with overlap

---- Real-time Memory Report at c_bands before calling an iterative solver
            55 MiB given to the printing process from OS
             0 MiB allocation reported by mallinfo(arena+hblkhd)
           653 MiB available memory on the node where the printing process lives
------------------
     ethr =  4.99E-09,  avg # of iterations =  3.0

     negative rho (up, down):  3.733E-01 0.000E+00

     total cpu time spent up to now is        7.1 secs

     total energy              =      -2.07164643 Ry
     estimated scf accuracy    <       0.00000654 Ry

     iteration # 87     ecut=     5.00 Ry     beta= 0.70
     Davidson diagonalization with overlap

---- Real-time Memory Report at c_bands before calling an iterative solver
            55 MiB given to the printing process from OS
             0 MiB allocation reported by mallinfo(arena+hblkhd)
           653 MiB available memory on the node where the printing process lives
------------------
     ethr =  4.99E-09,  avg # of iterations =  4.0

     negative rho (up, down):  3.734E-01 0.000E+00

     total cpu time spent up to now is        7.2 secs

     total energy              =      -2.07164952 Ry
     estimated scf accuracy    <       0.00000442 Ry

     iteration # 88     ecut=     5.00 Ry     beta= 0.70
     Davidson diagonalization with overlap

---- Real-time Memory Report at c_bands before calling an iterative solver
            55 MiB given to the printing process from OS
             0 MiB allocation reported by mallinfo(arena+hblkhd)
           653 MiB available memory on the node where the printing process lives
------------------
     ethr =  4.99E-09,  avg # of iterations =  3.0

     negative rho (up, down):  3.734E-01 0.000E+00

     total cpu time spent up to now is        7.3 secs

     total energy              =      -2.07166691 Ry
     estimated scf accuracy    <       0.00000570 Ry

     iteration # 89     ecut=     5.00 Ry     beta= 0.70
     Davidson diagonalization with overlap

---- Real-time Memory Report at c_bands before calling an iterative solver
            55 MiB given to the printing process from OS
             0 MiB allocation reported by mallinfo(arena+hblkhd)
           653 MiB available memory on the node where the printing process lives
------------------
     ethr =  4.99E-09,  avg # of iterations =  2.0

     negative rho (up, down):  3.734E-01 0.000E+00

     total cpu time spent up to now is        7.4 secs

     total energy              =      -2.07167503 Ry
     estimated scf accuracy    <       0.00000654 Ry

     iteration # 90     ecut=     5.00 Ry     beta= 0.70
     Davidson diagonalization with overlap

---- Real-time Memory Report at c_bands before calling an iterative solver
            55 MiB given to the printing process from OS
             0 MiB allocation reported by mallinfo(arena+hblkhd)
           653 MiB available memory on the node where the printing process lives
------------------
     ethr =  4.99E-09,  avg # of iterations =  2.0

     negative rho (up, down):  3.731E-01 0.000E+00

     total cpu time spent up to now is        7.4 secs

     total energy              =      -2.07177758 Ry
     estimated scf accuracy    <       0.00000683 Ry

     iteration # 91     ecut=     5.00 Ry     beta= 0.70
     Davidson diagonalization with overlap

---- Real-time Memory Report at c_bands before calling an iterative solver
            55 MiB given to the printing process from OS
             0 MiB allocation reported by mallinfo(arena+hblkhd)
           653 MiB available memory on the node where the printing process lives
------------------
     ethr =  4.99E-09,  avg # of iterations =  4.0

     negative rho (up, down):  3.733E-01 0.000E+00

     total cpu time spent up to now is        7.5 secs

     total energy              =      -2.07178307 Ry
     estimated scf accuracy    <       0.00000633 Ry

     iteration # 92     ecut=     5.00 Ry     beta= 0.70
     Davidson diagonalization with overlap

---- Real-time Memory Report at c_bands before calling an iterative solver
            55 MiB given to the printing process from OS
             0 MiB allocation reported by mallinfo(arena+hblkhd)
           653 MiB available memory on the node where the printing process lives
------------------
     ethr =  4.99E-09,  avg # of iterations =  4.0

     negative rho (up, down):  3.727E-01 0.000E+00

     total cpu time spent up to now is        7.6 secs

     total energy              =      -2.07128835 Ry
     estimated scf accuracy    <       0.00001054 Ry

     iteration # 93     ecut=     5.00 Ry     beta= 0.70
     Davidson diagonalization with overlap

---- Real-time Memory Report at c_bands before calling an iterative solver
            55 MiB given to the printing process from OS
             0 MiB allocation reported by mallinfo(arena+hblkhd)
           653 MiB available memory on the node where the printing process lives
------------------
     ethr =  4.99E-09,  avg # of iterations =  9.0

     negative rho (up, down):  3.727E-01 0.000E+00

     total cpu time spent up to now is        7.7 secs

     total energy              =      -2.07129343 Ry
     estimated scf accuracy    <       0.00001821 Ry

     iteration # 94     ecut=     5.00 Ry     beta= 0.70
     Davidson diagonalization with overlap

---- Real-time Memory Report at c_bands before calling an iterative solver
            55 MiB given to the printing process from OS
             0 MiB allocation reported by mallinfo(arena+hblkhd)
           653 MiB available memory on the node where the printing process lives
------------------
     ethr =  4.99E-09,  avg # of iterations =  7.0

     negative rho (up, down):  3.724E-01 0.000E+00

     total cpu time spent up to now is        7.8 secs

     total energy              =      -2.07171169 Ry
     estimated scf accuracy    <       0.00000377 Ry

     iteration # 95     ecut=     5.00 Ry     beta= 0.70
     Davidson diagonalization with overlap

---- Real-time Memory Report at c_bands before calling an iterative solver
            55 MiB given to the printing process from OS
             0 MiB allocation reported by mallinfo(arena+hblkhd)
           653 MiB available memory on the node where the printing process lives
------------------
     ethr =  4.99E-09,  avg # of iterations =  5.0

     negative rho (up, down):  3.735E-01 0.000E+00

     total cpu time spent up to now is        7.9 secs

     total energy              =      -2.07138172 Ry
     estimated scf accuracy    <       0.00000056 Ry

     iteration # 96     ecut=     5.00 Ry     beta= 0.70
     Davidson diagonalization with overlap

---- Real-time Memory Report at c_bands before calling an iterative solver
            55 MiB given to the printing process from OS
             0 MiB allocation reported by mallinfo(arena+hblkhd)
           653 MiB available memory on the node where the printing process lives
------------------
     ethr =  4.99E-09,  avg # of iterations =  5.0

     negative rho (up, down):  3.739E-01 0.000E+00

     total cpu time spent up to now is        8.0 secs

     total energy              =      -2.07149441 Ry
     estimated scf accuracy    <       0.00000042 Ry

     iteration # 97     ecut=     5.00 Ry     beta= 0.70
     Davidson diagonalization with overlap

---- Real-time Memory Report at c_bands before calling an iterative solver
            55 MiB given to the printing process from OS
             0 MiB allocation reported by mallinfo(arena+hblkhd)
           653 MiB available memory on the node where the printing process lives
------------------
     c_bands:  1 eigenvalues not converged
     ethr =  4.99E-09,  avg # of iterations = 20.0

     negative rho (up, down):  3.732E-01 0.000E+00

     total cpu time spent up to now is        8.1 secs

     total energy              =      -2.06960385 Ry
     estimated scf accuracy    <       0.00030658 Ry

     iteration # 98     ecut=     5.00 Ry     beta= 0.70
     Davidson diagonalization with overlap

---- Real-time Memory Report at c_bands before calling an iterative solver
            55 MiB given to the printing process from OS
             0 MiB allocation reported by mallinfo(arena+hblkhd)
           653 MiB available memory on the node where the printing process lives
------------------
     ethr =  4.99E-09,  avg # of iterations = 10.0

     negative rho (up, down):  3.739E-01 0.000E+00

     total cpu time spent up to now is        8.2 secs

     total energy              =      -2.07153238 Ry
     estimated scf accuracy    <       0.00000096 Ry

     iteration # 99     ecut=     5.00 Ry     beta= 0.70
     Davidson diagonalization with overlap

---- Real-time Memory Report at c_bands before calling an iterative solver
            55 MiB given to the printing process from OS
             0 MiB allocation reported by mallinfo(arena+hblkhd)
           653 MiB available memory on the node where the printing process lives
------------------
     ethr =  4.99E-09,  avg # of iterations =  6.0

     negative rho (up, down):  3.732E-01 0.000E+00

     total cpu time spent up to now is        8.3 secs

     total energy              =      -2.07127173 Ry
     estimated scf accuracy    <       0.00004417 Ry

     iteration #100     ecut=     5.00 Ry     beta= 0.70
     Davidson diagonalization with overlap

---- Real-time Memory Report at c_bands before calling an iterative solver
            55 MiB given to the printing process from OS
             0 MiB allocation reported by mallinfo(arena+hblkhd)
           653 MiB available memory on the node where the printing process lives
------------------
     ethr =  4.99E-09,  avg # of iterations =  6.0

     negative rho (up, down):  3.732E-01 0.000E+00

     total cpu time spent up to now is        8.4 secs

     total energy              =      -2.07170844 Ry
     estimated scf accuracy    <       0.00000776 Ry

     End of self-consistent calculation

     convergence NOT achieved after 100 iterations: stopping

     Writing config to output data dir ./.save/
     Message from routine punch:
     wavefunctions written to file

     init_run     :      0.08s CPU      0.08s WALL (       1 calls)
     electrons    :      8.26s CPU      8.29s WALL (       1 calls)

     Called by init_run:
     wfcinit      :      0.01s CPU      0.01s WALL (       1 calls)
     wfcinit:atom :      0.00s CPU      0.00s WALL (       1 calls)
     wfcinit:wfcr :      0.00s CPU      0.00s WALL (       1 calls)
     potinit      :      0.05s CPU      0.05s WALL (       1 calls)
     hinit0       :      0.01s CPU      0.01s WALL (       1 calls)

     Called by electrons:
     c_bands      :      2.30s CPU      2.30s WALL (     100 calls)
     sum_band     :      0.79s CPU      0.80s WALL (     100 calls)
     v_of_rho     :      4.00s CPU      4.01s WALL (     101 calls)
     v_h          :      0.20s CPU      0.20s WALL (     101 calls)
     v_xc         :      3.80s CPU      3.81s WALL (     101 calls)
     newd         :      0.26s CPU      0.26s WALL (     101 calls)
     mix_rho      :      0.87s CPU      0.87s WALL (     100 calls)

     Called by c_bands:
     init_us_2    :      0.03s CPU      0.03s WALL (     201 calls)
     init_us_2:cp :      0.03s CPU      0.03s WALL (     201 calls)
     cegterg      :      2.28s CPU      2.28s WALL (     100 calls)

     Called by sum_band:
     sum_band:wei :      0.00s CPU      0.00s WALL (     100 calls)
     sum_band:loo :      0.23s CPU      0.23s WALL (     100 calls)
     sum_band:buf :      0.00s CPU      0.00s WALL (     100 calls)
     sum_band:ini :      0.01s CPU      0.01s WALL (     100 calls)
     sum_band:cal :      0.00s CPU      0.00s WALL (     100 calls)
     sum_band:bec :      0.00s CPU      0.00s WALL (     100 calls)
     addusdens    :      0.07s CPU      0.07s WALL (     100 calls)
     addusd:skk   :      0.03s CPU      0.03s WALL (     100 calls)
     addusd:dgemm :      0.02s CPU      0.02s WALL (     100 calls)
     addusd:qvan2 :      0.02s CPU      0.02s WALL (     100 calls)

     Called by *egterg:
     cdiaghg      :      0.01s CPU      0.01s WALL (     593 calls)
     cegterg:over :      0.03s CPU      0.03s WALL (     493 calls)
     cegterg:upda :      0.03s CPU      0.03s WALL (     493 calls)
     cegterg:last :      0.05s CPU      0.05s WALL (     408 calls)
     h_psi        :      2.11s CPU      2.11s WALL (     594 calls)
     s_psi        :      0.01s CPU      0.01s WALL (     594 calls)
     g_psi        :      0.01s CPU      0.01s WALL (     493 calls)

     Called by h_psi:
     h_psi:calbec :      0.02s CPU      0.02s WALL (     594 calls)
     vloc_psi     :      2.07s CPU      2.07s WALL (     594 calls)
     add_vuspsi   :      0.01s CPU      0.01s WALL (     594 calls)

     General routines
     calbec       :      0.02s CPU      0.02s WALL (     694 calls)
     fft          :      1.75s CPU      1.75s WALL (    1111 calls)
     ffts         :      0.15s CPU      0.15s WALL (     100 calls)
     fftw         :      2.11s CPU      2.12s WALL (    2110 calls)
     davcio       :      0.00s CPU      0.00s WALL (      19 calls)


     PWSCF        :      8.36s CPU      8.40s WALL


   This run was terminated on:  14: 1:25  28Feb2022            

=------------------------------------------------------------------------------=
   JOB DONE.
=------------------------------------------------------------------------------=
