
     Program PWSCF v.7.0 starts on 28Feb2022 at  4:17:49 

     This program is part of the open-source Quantum ESPRESSO suite
     for quantum simulation of materials; please cite
         "P. Giannozzi et al., J. Phys.:Condens. Matter 21 395502 (2009);
         "P. Giannozzi et al., J. Phys.:Condens. Matter 29 465901 (2017);
         "P. Giannozzi et al., J. Chem. Phys. 152 154105 (2020);
          URL http://www.quantum-espresso.org", 
     in publications or presentations arising from this work. More details at
     http://www.quantum-espresso.org/quote

     Serial version
     620 MiB available memory on the printing compute node when the environment starts

     Waiting for input...
     Reading input from standard input

     Current dimensions of program PWSCF are:
     Max number of different atomic species (ntypx) = 10
     Max number of k-points (npk) =  40000
     Max angular momentum in pseudopotentials (lmaxx) =  4

    ============================================================
    |  pseudopotential report for atomic species:  1           |
    |        pseudo potential version   7   3   2              |
    ------------------------------------------------------------
    |  hydrogen            PBE                  exchange-corr  |
    |  z =   1.    zv( 1) =   1.    exfact =   5.00000         |
    |  ifpcor =  0           atomic energy =  -0.91772 Ry      |
    |  index    orbital      occupation    energy              |
    |    1        100           1.00       -0.48               |
    |  rinner =  0.5000                                        |
    |    new generation scheme:                                |
    |    nbeta =  1     kkbeta =  271     rcloc =    0.6000    |
    |    ibeta    l     epsilon   rcut                         |
    |      1       0      -0.48   0.80                         |
    ============================================================

     IMPORTANT: XC functional enforced from input :
     Exchange-correlation= BLYP
                           (   1   3   1   3   0   0   0)
     Any further DFT definition will be discarded
     Please, verify this is what you really want


     G-vector sticks info
     --------------------
     sticks:   dense  smooth     PW     G-vecs:    dense   smooth      PW
     Sum        8585    8585   2289               599161   599161   82519

     Using Slab Decomposition



     bravais-lattice index     =            1
     lattice parameter (alat)  =      30.0000  a.u.
     unit-cell volume          =   27000.0000 (a.u.)^3
     number of atoms/cell      =            2
     number of atomic types    =            1
     number of electrons       =         2.00
     number of Kohn-Sham states=            2
     kinetic-energy cutoff     =      30.0000  Ry
     charge density cutoff     =     120.0000  Ry
     scf convergence threshold =      1.0E-08
     mixing beta               =       0.7000
     number of iterations used =            8  plain     mixing
     energy convergence thresh.=      1.0E-04
     force convergence thresh. =      1.0E-03
     Exchange-correlation= BLYP
                           (   1   3   1   3   0   0   0)
     nstep                     =           50


     celldm(1)=  30.000000  celldm(2)=   0.000000  celldm(3)=   0.000000
     celldm(4)=   0.000000  celldm(5)=   0.000000  celldm(6)=   0.000000

     crystal axes: (cart. coord. in units of alat)
               a(1) = (   1.000000   0.000000   0.000000 )  
               a(2) = (   0.000000   1.000000   0.000000 )  
               a(3) = (   0.000000   0.000000   1.000000 )  

     reciprocal axes: (cart. coord. in units 2 pi/alat)
               b(1) = (  1.000000  0.000000  0.000000 )  
               b(2) = (  0.000000  1.000000  0.000000 )  
               b(3) = (  0.000000  0.000000  1.000000 )  


     PseudoPot. # 1 for hy read from file:
     /root/q-e/pseudo/H_US.van
     MD5 check sum: a9a9bfe98ff56cf4de197d71fc46bb44
     Pseudo is Ultrasoft, Zval =  1.0
     Generated by Vanderbilt code, v. 7.3.2
     Using radial grid of  399 points,  1 beta functions with: 
                l(1) =   0
     Q(r) pseudized with  8 coefficients,  rinner =    0.500

     atomic species   valence    mass     pseudopotential
        H              1.00     1.00784     hy( 1.00)

      8 Sym. Ops. (no inversion) found


                                    s                        frac. trans.

      isym =  1     identity                                     

 cryst.   s( 1) = (     1          0          0      )
                  (     0          1          0      )
                  (     0          0          1      )

 cart.    s( 1) = (  1.0000000  0.0000000  0.0000000 )
                  (  0.0000000  1.0000000  0.0000000 )
                  (  0.0000000  0.0000000  1.0000000 )


      isym =  2     180 deg rotation - cart. axis [1,0,0]        

 cryst.   s( 2) = (     1          0          0      )
                  (     0         -1          0      )
                  (     0          0         -1      )

 cart.    s( 2) = (  1.0000000  0.0000000  0.0000000 )
                  (  0.0000000 -1.0000000  0.0000000 )
                  (  0.0000000  0.0000000 -1.0000000 )


      isym =  3      90 deg rotation - cart. axis [-1,0,0]       

 cryst.   s( 3) = (     1          0          0      )
                  (     0          0         -1      )
                  (     0          1          0      )

 cart.    s( 3) = (  1.0000000  0.0000000  0.0000000 )
                  (  0.0000000  0.0000000  1.0000000 )
                  (  0.0000000 -1.0000000  0.0000000 )


      isym =  4      90 deg rotation - cart. axis [1,0,0]        

 cryst.   s( 4) = (     1          0          0      )
                  (     0          0          1      )
                  (     0         -1          0      )

 cart.    s( 4) = (  1.0000000  0.0000000  0.0000000 )
                  (  0.0000000  0.0000000 -1.0000000 )
                  (  0.0000000  1.0000000  0.0000000 )


      isym =  5     inv. 180 deg rotation - cart. axis [0,0,1]   

 cryst.   s( 5) = (     1          0          0      )
                  (     0          1          0      )
                  (     0          0         -1      )

 cart.    s( 5) = (  1.0000000  0.0000000  0.0000000 )
                  (  0.0000000  1.0000000  0.0000000 )
                  (  0.0000000  0.0000000 -1.0000000 )


      isym =  6     inv. 180 deg rotation - cart. axis [0,1,0]   

 cryst.   s( 6) = (     1          0          0      )
                  (     0         -1          0      )
                  (     0          0          1      )

 cart.    s( 6) = (  1.0000000  0.0000000  0.0000000 )
                  (  0.0000000 -1.0000000  0.0000000 )
                  (  0.0000000  0.0000000  1.0000000 )


      isym =  7     inv. 180 deg rotation - cart. axis [0,1,1]   

 cryst.   s( 7) = (     1          0          0      )
                  (     0          0         -1      )
                  (     0         -1          0      )

 cart.    s( 7) = (  1.0000000  0.0000000  0.0000000 )
                  (  0.0000000  0.0000000 -1.0000000 )
                  (  0.0000000 -1.0000000  0.0000000 )


      isym =  8     inv. 180 deg rotation - cart. axis [0,1,-1]  

 cryst.   s( 8) = (     1          0          0      )
                  (     0          0          1      )
                  (     0          1          0      )

 cart.    s( 8) = (  1.0000000  0.0000000  0.0000000 )
                  (  0.0000000  0.0000000  1.0000000 )
                  (  0.0000000  1.0000000  0.0000000 )


     point group C_4v (4mm) 
     there are  5 classes
     the character table:

       E     2C4   C2    2s_v  2s_d 
A_1    1.00  1.00  1.00  1.00  1.00
A_2    1.00  1.00  1.00 -1.00 -1.00
B_1    1.00 -1.00  1.00  1.00 -1.00
B_2    1.00 -1.00  1.00 -1.00  1.00
E      2.00  0.00 -2.00  0.00  0.00

     the symmetry operations in each class and the name of the first element:

     E        1
          identity                                               
     2C4      3    4
           90 deg rotation - cart. axis [-1,0,0]                 
     C2       2
          180 deg rotation - cart. axis [1,0,0]                  
     2s_v     5    6
          inv. 180 deg rotation - cart. axis [0,0,1]             
     2s_d     7    8
          inv. 180 deg rotation - cart. axis [0,1,1]             

   Cartesian axes

     site n.     atom                  positions (alat units)
         1           H   tau(   1) = (   0.0000000   0.0000000   0.0000000  )
         2           H   tau(   2) = (   0.0541721   0.0000000   0.0000000  )

   Crystallographic axes

     site n.     atom                  positions (cryst. coord.)
         1           H   tau(   1) = (  0.0000000  0.0000000  0.0000000  )
         2           H   tau(   2) = (  0.0541721  0.0000000  0.0000000  )

     number of k points=     1
                       cart. coord. in units 2pi/alat
        k(    1) = (  -0.5000000  -0.5000000  -0.5000000), wk =   2.0000000

                       cryst. coord.
        k(    1) = (  -0.5000000  -0.5000000  -0.5000000), wk =   2.0000000

     Dense  grid:   599161 G-vectors     FFT dimensions: ( 108, 108, 108)

     Dynamical RAM for                 wfc:       2.29 MB

     Dynamical RAM for     wfc (w. buffer):       2.29 MB

     Dynamical RAM for           str. fact:       9.14 MB

     Dynamical RAM for           local pot:       0.00 MB

     Dynamical RAM for          nlocal pot:       2.29 MB

     Dynamical RAM for                qrad:       0.01 MB

     Dynamical RAM for          rho,v,vnew:      56.26 MB

     Dynamical RAM for               rhoin:      18.75 MB

     Dynamical RAM for            rho*nmix:     146.28 MB

     Dynamical RAM for           G-vectors:      38.86 MB

     Dynamical RAM for          h,s,v(r/c):       0.00 MB

     Dynamical RAM for          <psi|beta>:       0.00 MB

     Dynamical RAM for                 psi:       4.57 MB

     Dynamical RAM for                hpsi:       4.57 MB

     Dynamical RAM for                spsi:       4.57 MB

     Dynamical RAM for      wfcinit/wfcrot:       4.57 MB

     Dynamical RAM for           addusdens:      54.85 MB

     Dynamical RAM for          addusforce:      77.71 MB

     Estimated static dynamical RAM per process >     193.93 MB

     Estimated max dynamical RAM per process >     417.92 MB

     Initial potential from superposition of free atoms

     starting charge       2.0000, renormalised to       2.0000

     negative rho (up, down):  1.470E-02 0.000E+00
     Starting wfcs are    2 randomized atomic wfcs

     total cpu time spent up to now is        1.0 secs

     Self-consistent Calculation

     iteration #  1     ecut=    30.00 Ry     beta= 0.70
     Davidson diagonalization with overlap

---- Real-time Memory Report at c_bands before calling an iterative solver
           332 MiB given to the printing process from OS
             0 MiB allocation reported by mallinfo(arena+hblkhd)
           395 MiB available memory on the node where the printing process lives
------------------
     ethr =  1.00E-02,  avg # of iterations =  3.0

     negative rho (up, down):  1.783E-02 0.000E+00

     total cpu time spent up to now is        2.2 secs

     total energy              =      -2.30290481 Ry
     estimated scf accuracy    <       0.08162603 Ry

     iteration #  2     ecut=    30.00 Ry     beta= 0.70
     Davidson diagonalization with overlap

---- Real-time Memory Report at c_bands before calling an iterative solver
           423 MiB given to the printing process from OS
             0 MiB allocation reported by mallinfo(arena+hblkhd)
           210 MiB available memory on the node where the printing process lives
------------------
     ethr =  4.08E-03,  avg # of iterations =  1.0

     negative rho (up, down):  1.838E-02 0.000E+00

     total cpu time spent up to now is        3.2 secs

     total energy              =      -2.30818357 Ry
     estimated scf accuracy    <       0.00092972 Ry

     iteration #  3     ecut=    30.00 Ry     beta= 0.70
     Davidson diagonalization with overlap

---- Real-time Memory Report at c_bands before calling an iterative solver
           442 MiB given to the printing process from OS
             0 MiB allocation reported by mallinfo(arena+hblkhd)
           192 MiB available memory on the node where the printing process lives
------------------
     ethr =  4.65E-05,  avg # of iterations = 11.0

     negative rho (up, down):  1.819E-02 0.000E+00

     total cpu time spent up to now is        4.7 secs

     total energy              =      -2.30858608 Ry
     estimated scf accuracy    <       0.00001431 Ry

     iteration #  4     ecut=    30.00 Ry     beta= 0.70
     Davidson diagonalization with overlap

---- Real-time Memory Report at c_bands before calling an iterative solver
           460 MiB given to the printing process from OS
             0 MiB allocation reported by mallinfo(arena+hblkhd)
           173 MiB available memory on the node where the printing process lives
------------------
     ethr =  7.16E-07,  avg # of iterations =  5.0

     negative rho (up, down):  1.817E-02 0.000E+00

     total cpu time spent up to now is        5.9 secs

     total energy              =      -2.30859666 Ry
     estimated scf accuracy    <       0.00000041 Ry

     iteration #  5     ecut=    30.00 Ry     beta= 0.70
     Davidson diagonalization with overlap

---- Real-time Memory Report at c_bands before calling an iterative solver
           478 MiB given to the printing process from OS
             0 MiB allocation reported by mallinfo(arena+hblkhd)
           155 MiB available memory on the node where the printing process lives
------------------
     ethr =  2.04E-08,  avg # of iterations =  2.0

     negative rho (up, down):  1.817E-02 0.000E+00

     total cpu time spent up to now is        7.0 secs

     total energy              =      -2.30859584 Ry
     estimated scf accuracy    <       0.00000002 Ry

     iteration #  6     ecut=    30.00 Ry     beta= 0.70
     Davidson diagonalization with overlap

---- Real-time Memory Report at c_bands before calling an iterative solver
           496 MiB given to the printing process from OS
             0 MiB allocation reported by mallinfo(arena+hblkhd)
           137 MiB available memory on the node where the printing process lives
------------------
     ethr =  1.02E-09,  avg # of iterations =  2.0

     negative rho (up, down):  1.817E-02 0.000E+00

     total cpu time spent up to now is        8.0 secs

     End of self-consistent calculation

          k =-0.5000-0.5000-0.5000 ( 74736 PWs)   bands (ev):

    -9.8087  -0.5788

     occupation numbers 
     1.0000   0.0000

     highest occupied, lowest unoccupied level (ev):    -9.8087   -0.5788

!    total energy              =      -2.30859790 Ry
     estimated scf accuracy    <          2.8E-11 Ry

     The total energy is the sum of the following terms:
     one-electron contribution =      -3.93908421 Ry
     hartree contribution      =       2.09270160 Ry
     xc contribution           =      -1.31496515 Ry
     ewald contribution        =       0.85274986 Ry

     convergence has been achieved in   6 iterations

     Forces acting on atoms (cartesian axes, Ry/au):

     atom    1 type  1   force =     0.10203055    0.00000000    0.00000000
     atom    2 type  1   force =    -0.10203055    0.00000000    0.00000000
     The non-local contrib.  to forces
     atom    1 type  1   force =     0.07691457    0.00000000    0.00000000
     atom    2 type  1   force =    -0.07656457    0.00000000    0.00000000
     The ionic contribution  to forces
     atom    1 type  1   force =    -0.75673451   -0.00000000   -0.00000000
     atom    2 type  1   force =     0.75673451   -0.00000000   -0.00000000
     The local contribution  to forces
     atom    1 type  1   force =     0.78202335    0.00000000    0.00000000
     atom    2 type  1   force =    -0.78202930    0.00000000    0.00000000
     The core correction contribution to forces
     atom    1 type  1   force =     0.00000000    0.00000000    0.00000000
     atom    2 type  1   force =     0.00000000    0.00000000    0.00000000
     The Hubbard contrib.    to forces
     atom    1 type  1   force =     0.00000000    0.00000000    0.00000000
     atom    2 type  1   force =     0.00000000    0.00000000    0.00000000
     The SCF correction term to forces
     atom    1 type  1   force =     0.00000090    0.00000000   -0.00000000
     atom    2 type  1   force =     0.00000257   -0.00000000   -0.00000000

     Total force =     0.144293     Total SCF correction =     0.000003

     BFGS Geometry Optimization
     Energy error            =      0.0E+00 Ry
     Gradient error          =      1.0E-01 Ry/Bohr

     number of scf cycles    =   1
     number of bfgs steps    =   0

     energy             new  =      -2.3085978976 Ry

     new trust radius        =       0.1020305530 bohr
     new conv_thr            =       0.0000000100 Ry


ATOMIC_POSITIONS (angstrom)
H             0.0539922435        0.0000000000        0.0000000000
H             0.8060077565        0.0000000000        0.0000000000



     Writing config-only to output data dir ./.save/
     NEW-OLD atomic charge density approx. for the potential

     negative rho (up, down):  1.851E-02 0.000E+00

     total cpu time spent up to now is        9.1 secs

     Self-consistent Calculation

     iteration #  1     ecut=    30.00 Ry     beta= 0.70
     Davidson diagonalization with overlap

---- Real-time Memory Report at c_bands before calling an iterative solver
           506 MiB given to the printing process from OS
             0 MiB allocation reported by mallinfo(arena+hblkhd)
           382 MiB available memory on the node where the printing process lives
------------------
     ethr =  1.00E-06,  avg # of iterations = 11.0

     negative rho (up, down):  2.092E-02 0.000E+00

     total cpu time spent up to now is       10.7 secs

     total energy              =      -2.31883096 Ry
     estimated scf accuracy    <       0.00275303 Ry

     iteration #  2     ecut=    30.00 Ry     beta= 0.70
     Davidson diagonalization with overlap

---- Real-time Memory Report at c_bands before calling an iterative solver
           506 MiB given to the printing process from OS
             0 MiB allocation reported by mallinfo(arena+hblkhd)
           200 MiB available memory on the node where the printing process lives
------------------
     ethr =  1.38E-04,  avg # of iterations =  1.0

     negative rho (up, down):  2.148E-02 0.000E+00

     total cpu time spent up to now is       11.8 secs

     total energy              =      -2.31879475 Ry
     estimated scf accuracy    <       0.00002895 Ry

     iteration #  3     ecut=    30.00 Ry     beta= 0.70
     Davidson diagonalization with overlap

---- Real-time Memory Report at c_bands before calling an iterative solver
           506 MiB given to the printing process from OS
             0 MiB allocation reported by mallinfo(arena+hblkhd)
           182 MiB available memory on the node where the printing process lives
------------------
     ethr =  1.45E-06,  avg # of iterations =  7.0

     negative rho (up, down):  2.160E-02 0.000E+00

     total cpu time spent up to now is       13.1 secs

     total energy              =      -2.31874305 Ry
     estimated scf accuracy    <       0.00000121 Ry

     iteration #  4     ecut=    30.00 Ry     beta= 0.70
     Davidson diagonalization with overlap

---- Real-time Memory Report at c_bands before calling an iterative solver
           506 MiB given to the printing process from OS
             0 MiB allocation reported by mallinfo(arena+hblkhd)
           164 MiB available memory on the node where the printing process lives
------------------
     ethr =  6.04E-08,  avg # of iterations =  2.0

     negative rho (up, down):  2.159E-02 0.000E+00

     total cpu time spent up to now is       14.1 secs

     End of self-consistent calculation

          k =-0.5000-0.5000-0.5000 ( 74736 PWs)   bands (ev):

   -10.3007  -0.6299

     occupation numbers 
     1.0000   0.0000

     highest occupied, lowest unoccupied level (ev):   -10.3007   -0.6299

!    total energy              =      -2.31874461 Ry
     estimated scf accuracy    <          1.1E-09 Ry

     The total energy is the sum of the following terms:
     one-electron contribution =      -4.19834615 Ry
     hartree contribution      =       2.22856112 Ry
     xc contribution           =      -1.37832474 Ry
     ewald contribution        =       1.02936517 Ry

     convergence has been achieved in   4 iterations

     Forces acting on atoms (cartesian axes, Ry/au):

     atom    1 type  1   force =     0.00235055    0.00000000    0.00000000
     atom    2 type  1   force =    -0.00235055    0.00000000    0.00000000
     The non-local contrib.  to forces
     atom    1 type  1   force =     0.10543847    0.00000000    0.00000000
     atom    2 type  1   force =    -0.10545622    0.00000000    0.00000000
     The ionic contribution  to forces
     atom    1 type  1   force =    -0.98988322    0.00000000   -0.00000000
     atom    2 type  1   force =     0.98988322    0.00000000   -0.00000000
     The local contribution  to forces
     atom    1 type  1   force =     0.88677791    0.00000000    0.00000000
     atom    2 type  1   force =    -0.88681517    0.00000000    0.00000000
     The core correction contribution to forces
     atom    1 type  1   force =     0.00000000    0.00000000    0.00000000
     atom    2 type  1   force =     0.00000000    0.00000000    0.00000000
     The Hubbard contrib.    to forces
     atom    1 type  1   force =     0.00000000    0.00000000    0.00000000
     atom    2 type  1   force =     0.00000000    0.00000000    0.00000000
     The SCF correction term to forces
     atom    1 type  1   force =    -0.00000375    0.00000000    0.00000000
     atom    2 type  1   force =     0.00001650   -0.00000000   -0.00000000

     Total force =     0.003324     Total SCF correction =     0.000017
     Energy error            =      1.0E-02 Ry
     Gradient error          =      2.4E-03 Ry/Bohr

     number of scf cycles    =   2
     number of bfgs steps    =   1

     energy             old  =      -2.3085978976 Ry
     energy             new  =      -2.3187446051 Ry

     CASE: energy            _new < energy            _old

     new trust radius        =       0.0024059753 bohr
     new conv_thr            =       0.0000000002 Ry


ATOMIC_POSITIONS (angstrom)
H             0.0552654308        0.0000000000        0.0000000000
H             0.8047345692        0.0000000000        0.0000000000



     Writing config-only to output data dir ./.save/
     NEW-OLD atomic charge density approx. for the potential

     negative rho (up, down):  2.163E-02 0.000E+00

     total cpu time spent up to now is       15.2 secs

     Self-consistent Calculation

     iteration #  1     ecut=    30.00 Ry     beta= 0.70
     Davidson diagonalization with overlap

---- Real-time Memory Report at c_bands before calling an iterative solver
           506 MiB given to the printing process from OS
             0 MiB allocation reported by mallinfo(arena+hblkhd)
           381 MiB available memory on the node where the printing process lives
------------------
     ethr =  1.00E-06,  avg # of iterations =  2.0

     Threshold (ethr) on eigenvalues was too large:
     Diagonalizing with lowered threshold

     Davidson diagonalization with overlap

---- Real-time Memory Report at c_bands before calling an iterative solver
           506 MiB given to the printing process from OS
             0 MiB allocation reported by mallinfo(arena+hblkhd)
           348 MiB available memory on the node where the printing process lives
------------------
     ethr =  8.52E-08,  avg # of iterations =  1.0

     negative rho (up, down):  2.169E-02 0.000E+00

     total cpu time spent up to now is       16.6 secs

     total energy              =      -2.31869185 Ry
     estimated scf accuracy    <       0.00000180 Ry

     iteration #  2     ecut=    30.00 Ry     beta= 0.70
     Davidson diagonalization with overlap

---- Real-time Memory Report at c_bands before calling an iterative solver
           506 MiB given to the printing process from OS
             0 MiB allocation reported by mallinfo(arena+hblkhd)
           200 MiB available memory on the node where the printing process lives
------------------
     ethr =  9.02E-08,  avg # of iterations =  1.0

     negative rho (up, down):  2.170E-02 0.000E+00

     total cpu time spent up to now is       17.7 secs

     total energy              =      -2.31868622 Ry
     estimated scf accuracy    <       0.00000002 Ry

     iteration #  3     ecut=    30.00 Ry     beta= 0.70
     Davidson diagonalization with overlap

---- Real-time Memory Report at c_bands before calling an iterative solver
           506 MiB given to the printing process from OS
             0 MiB allocation reported by mallinfo(arena+hblkhd)
           182 MiB available memory on the node where the printing process lives
------------------
     ethr =  1.09E-09,  avg # of iterations =  2.0

     negative rho (up, down):  2.170E-02 0.000E+00

     total cpu time spent up to now is       18.8 secs

     total energy              =      -2.31868386 Ry
     estimated scf accuracy    <          9.2E-10 Ry

     iteration #  4     ecut=    30.00 Ry     beta= 0.70
     Davidson diagonalization with overlap

---- Real-time Memory Report at c_bands before calling an iterative solver
           506 MiB given to the printing process from OS
             0 MiB allocation reported by mallinfo(arena+hblkhd)
           164 MiB available memory on the node where the printing process lives
------------------
     ethr =  4.58E-11,  avg # of iterations =  2.0

     negative rho (up, down):  2.170E-02 0.000E+00

     total cpu time spent up to now is       19.8 secs

     End of self-consistent calculation

          k =-0.5000-0.5000-0.5000 ( 74736 PWs)   bands (ev):

   -10.3134  -0.6361

     occupation numbers 
     1.0000   0.0000

     highest occupied, lowest unoccupied level (ev):   -10.3134   -0.6361

!    total energy              =      -2.31868487 Ry
     estimated scf accuracy    <          4.6E-12 Ry

     The total energy is the sum of the following terms:
     one-electron contribution =      -4.20484935 Ry
     hartree contribution      =       2.23194222 Ry
     xc contribution           =      -1.37992237 Ry
     ewald contribution        =       1.03414463 Ry

     convergence has been achieved in   4 iterations

     Forces acting on atoms (cartesian axes, Ry/au):

     atom    1 type  1   force =    -0.00124629    0.00000000    0.00000000
     atom    2 type  1   force =     0.00124629    0.00000000    0.00000000
     The non-local contrib.  to forces
     atom    1 type  1   force =     0.10599410    0.00000000    0.00000000
     atom    2 type  1   force =    -0.10596772    0.00000000    0.00000000
     The ionic contribution  to forces
     atom    1 type  1   force =    -0.99662559    0.00000000   -0.00000000
     atom    2 type  1   force =     0.99662559    0.00000000   -0.00000000
     The local contribution  to forces
     atom    1 type  1   force =     0.88938613    0.00000000    0.00000000
     atom    2 type  1   force =    -0.88940562    0.00000000    0.00000000
     The core correction contribution to forces
     atom    1 type  1   force =     0.00000000    0.00000000    0.00000000
     atom    2 type  1   force =     0.00000000    0.00000000    0.00000000
     The Hubbard contrib.    to forces
     atom    1 type  1   force =     0.00000000    0.00000000    0.00000000
     atom    2 type  1   force =     0.00000000    0.00000000    0.00000000
     The SCF correction term to forces
     atom    1 type  1   force =     0.00000242   -0.00000000    0.00000000
     atom    2 type  1   force =    -0.00000261    0.00000000    0.00000000

     Total force =     0.001763     Total SCF correction =     0.000004
     Energy error            =      6.0E-05 Ry
     Gradient error          =      1.2E-03 Ry/Bohr

     number of scf cycles    =   3
     number of bfgs steps    =   2

     energy             old  =      -2.3187446051 Ry
     energy             new  =      -2.3186848667 Ry

     CASE: energy            _new > energy            _old

     new trust radius        =       0.0001915105 bohr
     new conv_thr            =       0.0000000002 Ry


ATOMIC_POSITIONS (angstrom)
H             0.0540935865        0.0000000000        0.0000000000
H             0.8059064135        0.0000000000        0.0000000000



     Writing config-only to output data dir ./.save/
     NEW-OLD atomic charge density approx. for the potential

     negative rho (up, down):  2.167E-02 0.000E+00

     total cpu time spent up to now is       20.8 secs

     Self-consistent Calculation

     iteration #  1     ecut=    30.00 Ry     beta= 0.70
     Davidson diagonalization with overlap

---- Real-time Memory Report at c_bands before calling an iterative solver
           506 MiB given to the printing process from OS
             0 MiB allocation reported by mallinfo(arena+hblkhd)
           381 MiB available memory on the node where the printing process lives
------------------
     ethr =  1.00E-06,  avg # of iterations =  2.0

     Threshold (ethr) on eigenvalues was too large:
     Diagonalizing with lowered threshold

     Davidson diagonalization with overlap

---- Real-time Memory Report at c_bands before calling an iterative solver
           506 MiB given to the printing process from OS
             0 MiB allocation reported by mallinfo(arena+hblkhd)
           348 MiB available memory on the node where the printing process lives
------------------
     ethr =  7.33E-08,  avg # of iterations =  1.0

     negative rho (up, down):  2.161E-02 0.000E+00

     total cpu time spent up to now is       22.3 secs

     total energy              =      -2.31873391 Ry
     estimated scf accuracy    <       0.00000155 Ry

     iteration #  2     ecut=    30.00 Ry     beta= 0.70
     Davidson diagonalization with overlap

---- Real-time Memory Report at c_bands before calling an iterative solver
           506 MiB given to the printing process from OS
             0 MiB allocation reported by mallinfo(arena+hblkhd)
           200 MiB available memory on the node where the printing process lives
------------------
     ethr =  7.75E-08,  avg # of iterations =  1.0

     negative rho (up, down):  2.160E-02 0.000E+00

     total cpu time spent up to now is       23.3 secs

     total energy              =      -2.31874163 Ry
     estimated scf accuracy    <       0.00000002 Ry

     iteration #  3     ecut=    30.00 Ry     beta= 0.70
     Davidson diagonalization with overlap

---- Real-time Memory Report at c_bands before calling an iterative solver
           506 MiB given to the printing process from OS
             0 MiB allocation reported by mallinfo(arena+hblkhd)
           182 MiB available memory on the node where the printing process lives
------------------
     ethr =  9.40E-10,  avg # of iterations =  2.0

     negative rho (up, down):  2.160E-02 0.000E+00

     total cpu time spent up to now is       24.4 secs

     total energy              =      -2.31874307 Ry
     estimated scf accuracy    <          8.0E-10 Ry

     iteration #  4     ecut=    30.00 Ry     beta= 0.70
     Davidson diagonalization with overlap

---- Real-time Memory Report at c_bands before calling an iterative solver
           506 MiB given to the printing process from OS
             0 MiB allocation reported by mallinfo(arena+hblkhd)
           164 MiB available memory on the node where the printing process lives
------------------
     ethr =  4.00E-11,  avg # of iterations =  2.0

     negative rho (up, down):  2.160E-02 0.000E+00

     total cpu time spent up to now is       25.4 secs

     End of self-consistent calculation

          k =-0.5000-0.5000-0.5000 ( 74736 PWs)   bands (ev):

   -10.3017  -0.6303

     occupation numbers 
     1.0000   0.0000

     highest occupied, lowest unoccupied level (ev):   -10.3017   -0.6303

!    total energy              =      -2.31874304 Ry
     estimated scf accuracy    <          1.6E-12 Ry

     The total energy is the sum of the following terms:
     one-electron contribution =      -4.19885219 Ry
     hartree contribution      =       2.22880904 Ry
     xc contribution           =      -1.37844431 Ry
     ewald contribution        =       1.02974442 Ry

     convergence has been achieved in   4 iterations

     Forces acting on atoms (cartesian axes, Ry/au):

     atom    1 type  1   force =     0.00207009    0.00000000    0.00000000
     atom    2 type  1   force =    -0.00207009    0.00000000    0.00000000
     The non-local contrib.  to forces
     atom    1 type  1   force =     0.10548791    0.00000000    0.00000000
     atom    2 type  1   force =    -0.10550177    0.00000000    0.00000000
     The ionic contribution  to forces
     atom    1 type  1   force =    -0.99041739    0.00000000   -0.00000000
     atom    2 type  1   force =     0.99041739    0.00000000   -0.00000000
     The local contribution  to forces
     atom    1 type  1   force =     0.88697841    0.00000000    0.00000000
     atom    2 type  1   force =    -0.88700622    0.00000000    0.00000000
     The core correction contribution to forces
     atom    1 type  1   force =     0.00000000    0.00000000    0.00000000
     atom    2 type  1   force =     0.00000000    0.00000000    0.00000000
     The Hubbard contrib.    to forces
     atom    1 type  1   force =     0.00000000    0.00000000    0.00000000
     atom    2 type  1   force =     0.00000000    0.00000000    0.00000000
     The SCF correction term to forces
     atom    1 type  1   force =     0.00000032   -0.00000000    0.00000000
     atom    2 type  1   force =    -0.00000034   -0.00000000    0.00000000

     Total force =     0.002928     Total SCF correction =     0.000000
     Energy error            =      1.6E-06 Ry
     Gradient error          =      2.1E-03 Ry/Bohr

     number of scf cycles    =   4
     number of bfgs steps    =   2

     energy             old  =      -2.3187446051 Ry
     energy             new  =      -2.3187430450 Ry

     CASE: energy            _new > energy            _old

     new trust radius        =       0.0000350379 bohr

     trust_radius < trust_radius_min

     resetting bfgs history

     new conv_thr            =       0.0000000002 Ry


ATOMIC_POSITIONS (angstrom)
H             0.0552360995        0.0000000000        0.0000000000
H             0.8047639005        0.0000000000        0.0000000000



     Writing config-only to output data dir ./.save/
     NEW-OLD atomic charge density approx. for the potential

     negative rho (up, down):  2.163E-02 0.000E+00

     total cpu time spent up to now is       26.5 secs

     Self-consistent Calculation

     iteration #  1     ecut=    30.00 Ry     beta= 0.70
     Davidson diagonalization with overlap

---- Real-time Memory Report at c_bands before calling an iterative solver
           506 MiB given to the printing process from OS
             0 MiB allocation reported by mallinfo(arena+hblkhd)
           381 MiB available memory on the node where the printing process lives
------------------
     ethr =  1.00E-06,  avg # of iterations =  2.0

     Threshold (ethr) on eigenvalues was too large:
     Diagonalizing with lowered threshold

     Davidson diagonalization with overlap

---- Real-time Memory Report at c_bands before calling an iterative solver
           506 MiB given to the printing process from OS
             0 MiB allocation reported by mallinfo(arena+hblkhd)
           348 MiB available memory on the node where the printing process lives
------------------
     ethr =  6.99E-08,  avg # of iterations =  1.0

     negative rho (up, down):  2.169E-02 0.000E+00

     total cpu time spent up to now is       27.9 secs

     total energy              =      -2.31869148 Ry
     estimated scf accuracy    <       0.00000148 Ry

     iteration #  2     ecut=    30.00 Ry     beta= 0.70
     Davidson diagonalization with overlap

---- Real-time Memory Report at c_bands before calling an iterative solver
           506 MiB given to the printing process from OS
             0 MiB allocation reported by mallinfo(arena+hblkhd)
           200 MiB available memory on the node where the printing process lives
------------------
     ethr =  7.39E-08,  avg # of iterations =  1.0

     negative rho (up, down):  2.170E-02 0.000E+00

     total cpu time spent up to now is       28.9 secs

     total energy              =      -2.31868762 Ry
     estimated scf accuracy    <       0.00000002 Ry

     iteration #  3     ecut=    30.00 Ry     beta= 0.70
     Davidson diagonalization with overlap

---- Real-time Memory Report at c_bands before calling an iterative solver
           506 MiB given to the printing process from OS
             0 MiB allocation reported by mallinfo(arena+hblkhd)
           182 MiB available memory on the node where the printing process lives
------------------
     ethr =  8.92E-10,  avg # of iterations =  2.0

     negative rho (up, down):  2.170E-02 0.000E+00

     total cpu time spent up to now is       30.0 secs

     total energy              =      -2.31868497 Ry
     estimated scf accuracy    <          7.4E-10 Ry

     iteration #  4     ecut=    30.00 Ry     beta= 0.70
     Davidson diagonalization with overlap

---- Real-time Memory Report at c_bands before calling an iterative solver
           506 MiB given to the printing process from OS
             0 MiB allocation reported by mallinfo(arena+hblkhd)
           164 MiB available memory on the node where the printing process lives
------------------
     ethr =  3.68E-11,  avg # of iterations =  2.0

     negative rho (up, down):  2.170E-02 0.000E+00

     total cpu time spent up to now is       31.0 secs

     End of self-consistent calculation

          k =-0.5000-0.5000-0.5000 ( 74736 PWs)   bands (ev):

   -10.3131  -0.6362

     occupation numbers 
     1.0000   0.0000

     highest occupied, lowest unoccupied level (ev):   -10.3131   -0.6362

!    total energy              =      -2.31868550 Ry
     estimated scf accuracy    <          5.6E-12 Ry

     The total energy is the sum of the following terms:
     one-electron contribution =      -4.20469913 Ry
     hartree contribution      =       2.23186384 Ry
     xc contribution           =      -1.37988437 Ry
     ewald contribution        =       1.03403416 Ry

     convergence has been achieved in   4 iterations

     Forces acting on atoms (cartesian axes, Ry/au):

     atom    1 type  1   force =    -0.00116045    0.00000000    0.00000000
     atom    2 type  1   force =     0.00116045    0.00000000    0.00000000
     The non-local contrib.  to forces
     atom    1 type  1   force =     0.10598514    0.00000000    0.00000000
     atom    2 type  1   force =    -0.10595670    0.00000000    0.00000000
     The ionic contribution  to forces
     atom    1 type  1   force =    -0.99646948    0.00000000   -0.00000000
     atom    2 type  1   force =     0.99646948    0.00000000   -0.00000000
     The local contribution  to forces
     atom    1 type  1   force =     0.88932615    0.00000000    0.00000000
     atom    2 type  1   force =    -0.88934520    0.00000000    0.00000000
     The core correction contribution to forces
     atom    1 type  1   force =     0.00000000    0.00000000    0.00000000
     atom    2 type  1   force =     0.00000000    0.00000000    0.00000000
     The Hubbard contrib.    to forces
     atom    1 type  1   force =     0.00000000    0.00000000    0.00000000
     atom    2 type  1   force =     0.00000000    0.00000000    0.00000000
     The SCF correction term to forces
     atom    1 type  1   force =     0.00000239   -0.00000000    0.00000000
     atom    2 type  1   force =    -0.00000250    0.00000000    0.00000000

     Total force =     0.001641     Total SCF correction =     0.000003
     Energy error            =      5.9E-05 Ry
     Gradient error          =      1.2E-03 Ry/Bohr

     number of scf cycles    =   5
     number of bfgs steps    =   2

     energy             old  =      -2.3187446051 Ry
     energy             new  =      -2.3186854974 Ry

     CASE: energy            _new > energy            _old

     new trust radius        =       0.0001851103 bohr
     new conv_thr            =       0.0000000002 Ry


ATOMIC_POSITIONS (angstrom)
H             0.0540901996        0.0000000000        0.0000000000
H             0.8059098004        0.0000000000        0.0000000000



     Writing config-only to output data dir ./.save/
     NEW-OLD atomic charge density approx. for the potential

     negative rho (up, down):  2.167E-02 0.000E+00

     total cpu time spent up to now is       32.1 secs

     Self-consistent Calculation

     iteration #  1     ecut=    30.00 Ry     beta= 0.70
     Davidson diagonalization with overlap

---- Real-time Memory Report at c_bands before calling an iterative solver
           506 MiB given to the printing process from OS
             0 MiB allocation reported by mallinfo(arena+hblkhd)
           381 MiB available memory on the node where the printing process lives
------------------
     ethr =  1.00E-06,  avg # of iterations =  2.0

     Threshold (ethr) on eigenvalues was too large:
     Diagonalizing with lowered threshold

     Davidson diagonalization with overlap

---- Real-time Memory Report at c_bands before calling an iterative solver
           506 MiB given to the printing process from OS
             0 MiB allocation reported by mallinfo(arena+hblkhd)
           348 MiB available memory on the node where the printing process lives
------------------
     ethr =  7.00E-08,  avg # of iterations =  1.0

     negative rho (up, down):  2.161E-02 0.000E+00

     total cpu time spent up to now is       33.5 secs

     total energy              =      -2.31873454 Ry
     estimated scf accuracy    <       0.00000148 Ry

     iteration #  2     ecut=    30.00 Ry     beta= 0.70
     Davidson diagonalization with overlap

---- Real-time Memory Report at c_bands before calling an iterative solver
           506 MiB given to the printing process from OS
             0 MiB allocation reported by mallinfo(arena+hblkhd)
           200 MiB available memory on the node where the printing process lives
------------------
     ethr =  7.41E-08,  avg # of iterations =  1.0

     negative rho (up, down):  2.160E-02 0.000E+00

     total cpu time spent up to now is       34.5 secs

     total energy              =      -2.31874174 Ry
     estimated scf accuracy    <       0.00000002 Ry

     iteration #  3     ecut=    30.00 Ry     beta= 0.70
     Davidson diagonalization with overlap

---- Real-time Memory Report at c_bands before calling an iterative solver
           506 MiB given to the printing process from OS
             0 MiB allocation reported by mallinfo(arena+hblkhd)
           182 MiB available memory on the node where the printing process lives
------------------
     ethr =  9.04E-10,  avg # of iterations =  2.0

     negative rho (up, down):  2.160E-02 0.000E+00

     total cpu time spent up to now is       35.6 secs

     total energy              =      -2.31874309 Ry
     estimated scf accuracy    <          7.7E-10 Ry

     iteration #  4     ecut=    30.00 Ry     beta= 0.70
     Davidson diagonalization with overlap

---- Real-time Memory Report at c_bands before calling an iterative solver
           506 MiB given to the printing process from OS
             0 MiB allocation reported by mallinfo(arena+hblkhd)
           164 MiB available memory on the node where the printing process lives
------------------
     ethr =  3.83E-11,  avg # of iterations =  2.0

     negative rho (up, down):  2.160E-02 0.000E+00

     total cpu time spent up to now is       36.6 secs

     End of self-consistent calculation

          k =-0.5000-0.5000-0.5000 ( 74736 PWs)   bands (ev):

   -10.3017  -0.6305

     occupation numbers 
     1.0000   0.0000

     highest occupied, lowest unoccupied level (ev):   -10.3017   -0.6305

!    total energy              =      -2.31874307 Ry
     estimated scf accuracy    <          1.8E-12 Ry

     The total energy is the sum of the following terms:
     one-electron contribution =      -4.19883488 Ry
     hartree contribution      =       2.22879999 Ry
     xc contribution           =      -1.37843992 Ry
     ewald contribution        =       1.02973174 Ry

     convergence has been achieved in   4 iterations

     Forces acting on atoms (cartesian axes, Ry/au):

     atom    1 type  1   force =     0.00208022    0.00000000    0.00000000
     atom    2 type  1   force =    -0.00208022    0.00000000    0.00000000
     The non-local contrib.  to forces
     atom    1 type  1   force =     0.10548717    0.00000000    0.00000000
     atom    2 type  1   force =    -0.10550093    0.00000000    0.00000000
     The ionic contribution  to forces
     atom    1 type  1   force =    -0.99039953    0.00000000   -0.00000000
     atom    2 type  1   force =     0.99039953    0.00000000   -0.00000000
     The local contribution  to forces
     atom    1 type  1   force =     0.88697149    0.00000000    0.00000000
     atom    2 type  1   force =    -0.88699925    0.00000000    0.00000000
     The core correction contribution to forces
     atom    1 type  1   force =     0.00000000    0.00000000    0.00000000
     atom    2 type  1   force =     0.00000000    0.00000000    0.00000000
     The Hubbard contrib.    to forces
     atom    1 type  1   force =     0.00000000    0.00000000    0.00000000
     atom    2 type  1   force =     0.00000000    0.00000000    0.00000000
     The SCF correction term to forces
     atom    1 type  1   force =     0.00000036    0.00000000    0.00000000
     atom    2 type  1   force =    -0.00000029    0.00000000    0.00000000

     Total force =     0.002942     Total SCF correction =     0.000000
     Energy error            =      1.5E-06 Ry
     Gradient error          =      2.1E-03 Ry/Bohr

     number of scf cycles    =   6
     number of bfgs steps    =   2

     energy             old  =      -2.3187446051 Ry
     energy             new  =      -2.3187430747 Ry

     CASE: energy            _new > energy            _old

     new trust radius        =       0.0000335513 bohr

     trust_radius < trust_radius_min

     resetting bfgs history

     new conv_thr            =       0.0000000002 Ry


ATOMIC_POSITIONS (angstrom)
H             0.0552360995        0.0000000000        0.0000000000
H             0.8047639005        0.0000000000        0.0000000000



     Writing config-only to output data dir ./.save/
     NEW-OLD atomic charge density approx. for the potential

     negative rho (up, down):  2.163E-02 0.000E+00

     total cpu time spent up to now is       37.7 secs

     Self-consistent Calculation

     iteration #  1     ecut=    30.00 Ry     beta= 0.70
     Davidson diagonalization with overlap

---- Real-time Memory Report at c_bands before calling an iterative solver
           506 MiB given to the printing process from OS
             0 MiB allocation reported by mallinfo(arena+hblkhd)
           381 MiB available memory on the node where the printing process lives
------------------
     ethr =  1.00E-06,  avg # of iterations =  2.0

     Threshold (ethr) on eigenvalues was too large:
     Diagonalizing with lowered threshold

     Davidson diagonalization with overlap

---- Real-time Memory Report at c_bands before calling an iterative solver
           506 MiB given to the printing process from OS
             0 MiB allocation reported by mallinfo(arena+hblkhd)
           348 MiB available memory on the node where the printing process lives
------------------
     ethr =  7.03E-08,  avg # of iterations =  1.0

     negative rho (up, down):  2.169E-02 0.000E+00

     total cpu time spent up to now is       39.1 secs

     total energy              =      -2.31869150 Ry
     estimated scf accuracy    <       0.00000149 Ry

     iteration #  2     ecut=    30.00 Ry     beta= 0.70
     Davidson diagonalization with overlap

---- Real-time Memory Report at c_bands before calling an iterative solver
           506 MiB given to the printing process from OS
             0 MiB allocation reported by mallinfo(arena+hblkhd)
           200 MiB available memory on the node where the printing process lives
------------------
     ethr =  7.43E-08,  avg # of iterations =  1.0

     negative rho (up, down):  2.170E-02 0.000E+00

     total cpu time spent up to now is       40.1 secs

     total energy              =      -2.31868763 Ry
     estimated scf accuracy    <       0.00000002 Ry

     iteration #  3     ecut=    30.00 Ry     beta= 0.70
     Davidson diagonalization with overlap

---- Real-time Memory Report at c_bands before calling an iterative solver
           506 MiB given to the printing process from OS
             0 MiB allocation reported by mallinfo(arena+hblkhd)
           182 MiB available memory on the node where the printing process lives
------------------
     ethr =  8.98E-10,  avg # of iterations =  2.0

     negative rho (up, down):  2.170E-02 0.000E+00

     total cpu time spent up to now is       41.2 secs

     total energy              =      -2.31868497 Ry
     estimated scf accuracy    <          7.4E-10 Ry

     iteration #  4     ecut=    30.00 Ry     beta= 0.70
     Davidson diagonalization with overlap

---- Real-time Memory Report at c_bands before calling an iterative solver
           506 MiB given to the printing process from OS
             0 MiB allocation reported by mallinfo(arena+hblkhd)
           164 MiB available memory on the node where the printing process lives
------------------
     ethr =  3.69E-11,  avg # of iterations =  2.0

     negative rho (up, down):  2.170E-02 0.000E+00

     total cpu time spent up to now is       42.2 secs

     End of self-consistent calculation

          k =-0.5000-0.5000-0.5000 ( 74736 PWs)   bands (ev):

   -10.3131  -0.6364

     occupation numbers 
     1.0000   0.0000

     highest occupied, lowest unoccupied level (ev):   -10.3131   -0.6364

!    total energy              =      -2.31868550 Ry
     estimated scf accuracy    <          5.6E-12 Ry

     The total energy is the sum of the following terms:
     one-electron contribution =      -4.20469912 Ry
     hartree contribution      =       2.23186381 Ry
     xc contribution           =      -1.37988435 Ry
     ewald contribution        =       1.03403416 Ry

     convergence has been achieved in   4 iterations

     Forces acting on atoms (cartesian axes, Ry/au):

     atom    1 type  1   force =    -0.00116045    0.00000000    0.00000000
     atom    2 type  1   force =     0.00116045    0.00000000    0.00000000
     The non-local contrib.  to forces
     atom    1 type  1   force =     0.10598514    0.00000000    0.00000000
     atom    2 type  1   force =    -0.10595670    0.00000000    0.00000000
     The ionic contribution  to forces
     atom    1 type  1   force =    -0.99646948    0.00000000   -0.00000000
     atom    2 type  1   force =     0.99646948    0.00000000   -0.00000000
     The local contribution  to forces
     atom    1 type  1   force =     0.88932609    0.00000000    0.00000000
     atom    2 type  1   force =    -0.88934522    0.00000000    0.00000000
     The core correction contribution to forces
     atom    1 type  1   force =     0.00000000    0.00000000    0.00000000
     atom    2 type  1   force =     0.00000000    0.00000000    0.00000000
     The Hubbard contrib.    to forces
     atom    1 type  1   force =     0.00000000    0.00000000    0.00000000
     atom    2 type  1   force =     0.00000000    0.00000000    0.00000000
     The SCF correction term to forces
     atom    1 type  1   force =     0.00000241   -0.00000000    0.00000000
     atom    2 type  1   force =    -0.00000250    0.00000000    0.00000000

     Total force =     0.001641     Total SCF correction =     0.000003
     Energy error            =      5.9E-05 Ry
     Gradient error          =      1.2E-03 Ry/Bohr

     number of scf cycles    =   7
     number of bfgs steps    =   2

     energy             old  =      -2.3187446051 Ry
     energy             new  =      -2.3186854976 Ry

     CASE: energy            _new > energy            _old

     new trust radius        =       0.0001851107 bohr
     new conv_thr            =       0.0000000002 Ry


ATOMIC_POSITIONS (angstrom)
H             0.0540901999        0.0000000000        0.0000000000
H             0.8059098001        0.0000000000        0.0000000000



     Writing config-only to output data dir ./.save/
     NEW-OLD atomic charge density approx. for the potential

     negative rho (up, down):  2.167E-02 0.000E+00

     total cpu time spent up to now is       43.3 secs

     Self-consistent Calculation

     iteration #  1     ecut=    30.00 Ry     beta= 0.70
     Davidson diagonalization with overlap

---- Real-time Memory Report at c_bands before calling an iterative solver
           506 MiB given to the printing process from OS
             0 MiB allocation reported by mallinfo(arena+hblkhd)
           381 MiB available memory on the node where the printing process lives
------------------
     ethr =  1.00E-06,  avg # of iterations =  2.0

     Threshold (ethr) on eigenvalues was too large:
     Diagonalizing with lowered threshold

     Davidson diagonalization with overlap

---- Real-time Memory Report at c_bands before calling an iterative solver
           506 MiB given to the printing process from OS
             0 MiB allocation reported by mallinfo(arena+hblkhd)
           348 MiB available memory on the node where the printing process lives
------------------
     ethr =  7.00E-08,  avg # of iterations =  1.0

     negative rho (up, down):  2.161E-02 0.000E+00

     total cpu time spent up to now is       44.7 secs

     total energy              =      -2.31873454 Ry
     estimated scf accuracy    <       0.00000148 Ry

     iteration #  2     ecut=    30.00 Ry     beta= 0.70
     Davidson diagonalization with overlap

---- Real-time Memory Report at c_bands before calling an iterative solver
           506 MiB given to the printing process from OS
             0 MiB allocation reported by mallinfo(arena+hblkhd)
           200 MiB available memory on the node where the printing process lives
------------------
     ethr =  7.41E-08,  avg # of iterations =  1.0

     negative rho (up, down):  2.160E-02 0.000E+00

     total cpu time spent up to now is       45.7 secs

     total energy              =      -2.31874174 Ry
     estimated scf accuracy    <       0.00000002 Ry

     iteration #  3     ecut=    30.00 Ry     beta= 0.70
     Davidson diagonalization with overlap

---- Real-time Memory Report at c_bands before calling an iterative solver
           506 MiB given to the printing process from OS
             0 MiB allocation reported by mallinfo(arena+hblkhd)
           182 MiB available memory on the node where the printing process lives
------------------
     ethr =  9.04E-10,  avg # of iterations =  2.0

     negative rho (up, down):  2.160E-02 0.000E+00

     total cpu time spent up to now is       46.8 secs

     total energy              =      -2.31874309 Ry
     estimated scf accuracy    <          7.6E-10 Ry

     iteration #  4     ecut=    30.00 Ry     beta= 0.70
     Davidson diagonalization with overlap

---- Real-time Memory Report at c_bands before calling an iterative solver
           506 MiB given to the printing process from OS
             0 MiB allocation reported by mallinfo(arena+hblkhd)
           164 MiB available memory on the node where the printing process lives
------------------
     ethr =  3.82E-11,  avg # of iterations =  2.0

     negative rho (up, down):  2.160E-02 0.000E+00

     total cpu time spent up to now is       47.8 secs

     End of self-consistent calculation

          k =-0.5000-0.5000-0.5000 ( 74736 PWs)   bands (ev):

   -10.3017  -0.6308

     occupation numbers 
     1.0000   0.0000

     highest occupied, lowest unoccupied level (ev):   -10.3017   -0.6308

!    total energy              =      -2.31874307 Ry
     estimated scf accuracy    <          1.8E-12 Ry

     The total energy is the sum of the following terms:
     one-electron contribution =      -4.19883488 Ry
     hartree contribution      =       2.22880000 Ry
     xc contribution           =      -1.37843993 Ry
     ewald contribution        =       1.02973174 Ry

     convergence has been achieved in   4 iterations

     Forces acting on atoms (cartesian axes, Ry/au):

     atom    1 type  1   force =     0.00208022    0.00000000    0.00000000
     atom    2 type  1   force =    -0.00208022    0.00000000    0.00000000
     The non-local contrib.  to forces
     atom    1 type  1   force =     0.10548717    0.00000000    0.00000000
     atom    2 type  1   force =    -0.10550093    0.00000000    0.00000000
     The ionic contribution  to forces
     atom    1 type  1   force =    -0.99039953    0.00000000   -0.00000000
     atom    2 type  1   force =     0.99039953    0.00000000   -0.00000000
     The local contribution  to forces
     atom    1 type  1   force =     0.88697152    0.00000000    0.00000000
     atom    2 type  1   force =    -0.88699924    0.00000000    0.00000000
     The core correction contribution to forces
     atom    1 type  1   force =     0.00000000    0.00000000    0.00000000
     atom    2 type  1   force =     0.00000000    0.00000000    0.00000000
     The Hubbard contrib.    to forces
     atom    1 type  1   force =     0.00000000    0.00000000    0.00000000
     atom    2 type  1   force =     0.00000000    0.00000000    0.00000000
     The SCF correction term to forces
     atom    1 type  1   force =     0.00000035    0.00000000   -0.00000000
     atom    2 type  1   force =    -0.00000028    0.00000000   -0.00000000

     Total force =     0.002942     Total SCF correction =     0.000000
     Energy error            =      1.5E-06 Ry
     Gradient error          =      2.1E-03 Ry/Bohr

     number of scf cycles    =   8
     number of bfgs steps    =   2

     energy             old  =      -2.3187446051 Ry
     energy             new  =      -2.3187430746 Ry

     CASE: energy            _new > energy            _old

     new trust radius        =       0.0000335503 bohr

     trust_radius < trust_radius_min

     resetting bfgs history

     new conv_thr            =       0.0000000002 Ry


ATOMIC_POSITIONS (angstrom)
H             0.0552360995        0.0000000000        0.0000000000
H             0.8047639005        0.0000000000        0.0000000000



     Writing config-only to output data dir ./.save/
     NEW-OLD atomic charge density approx. for the potential

     negative rho (up, down):  2.163E-02 0.000E+00

     total cpu time spent up to now is       48.9 secs

     Self-consistent Calculation

     iteration #  1     ecut=    30.00 Ry     beta= 0.70
     Davidson diagonalization with overlap

---- Real-time Memory Report at c_bands before calling an iterative solver
           506 MiB given to the printing process from OS
             0 MiB allocation reported by mallinfo(arena+hblkhd)
           381 MiB available memory on the node where the printing process lives
------------------
     ethr =  1.00E-06,  avg # of iterations =  2.0

     Threshold (ethr) on eigenvalues was too large:
     Diagonalizing with lowered threshold

     Davidson diagonalization with overlap

---- Real-time Memory Report at c_bands before calling an iterative solver
           506 MiB given to the printing process from OS
             0 MiB allocation reported by mallinfo(arena+hblkhd)
           348 MiB available memory on the node where the printing process lives
------------------
     ethr =  7.03E-08,  avg # of iterations =  1.0

     negative rho (up, down):  2.169E-02 0.000E+00

     total cpu time spent up to now is       50.3 secs

     total energy              =      -2.31869150 Ry
     estimated scf accuracy    <       0.00000149 Ry

     iteration #  2     ecut=    30.00 Ry     beta= 0.70
     Davidson diagonalization with overlap

---- Real-time Memory Report at c_bands before calling an iterative solver
           506 MiB given to the printing process from OS
             0 MiB allocation reported by mallinfo(arena+hblkhd)
           200 MiB available memory on the node where the printing process lives
------------------
     ethr =  7.43E-08,  avg # of iterations =  1.0

     negative rho (up, down):  2.170E-02 0.000E+00

     total cpu time spent up to now is       51.4 secs

     total energy              =      -2.31868763 Ry
     estimated scf accuracy    <       0.00000002 Ry

     iteration #  3     ecut=    30.00 Ry     beta= 0.70
     Davidson diagonalization with overlap

---- Real-time Memory Report at c_bands before calling an iterative solver
           506 MiB given to the printing process from OS
             0 MiB allocation reported by mallinfo(arena+hblkhd)
           182 MiB available memory on the node where the printing process lives
------------------
     ethr =  8.99E-10,  avg # of iterations =  2.0

     negative rho (up, down):  2.170E-02 0.000E+00

     total cpu time spent up to now is       52.4 secs

     total energy              =      -2.31868497 Ry
     estimated scf accuracy    <          7.4E-10 Ry

     iteration #  4     ecut=    30.00 Ry     beta= 0.70
     Davidson diagonalization with overlap

---- Real-time Memory Report at c_bands before calling an iterative solver
           506 MiB given to the printing process from OS
             0 MiB allocation reported by mallinfo(arena+hblkhd)
           164 MiB available memory on the node where the printing process lives
------------------
     ethr =  3.68E-11,  avg # of iterations =  2.0

     negative rho (up, down):  2.170E-02 0.000E+00

     total cpu time spent up to now is       53.4 secs

     End of self-consistent calculation

          k =-0.5000-0.5000-0.5000 ( 74736 PWs)   bands (ev):

   -10.3131  -0.6367

     occupation numbers 
     1.0000   0.0000

     highest occupied, lowest unoccupied level (ev):   -10.3131   -0.6367

!    total energy              =      -2.31868550 Ry
     estimated scf accuracy    <          5.6E-12 Ry

     The total energy is the sum of the following terms:
     one-electron contribution =      -4.20469911 Ry
     hartree contribution      =       2.23186379 Ry
     xc contribution           =      -1.37988434 Ry
     ewald contribution        =       1.03403416 Ry

     convergence has been achieved in   4 iterations

     Forces acting on atoms (cartesian axes, Ry/au):

     atom    1 type  1   force =    -0.00116045    0.00000000    0.00000000
     atom    2 type  1   force =     0.00116045    0.00000000    0.00000000
     The non-local contrib.  to forces
     atom    1 type  1   force =     0.10598513    0.00000000    0.00000000
     atom    2 type  1   force =    -0.10595670    0.00000000    0.00000000
     The ionic contribution  to forces
     atom    1 type  1   force =    -0.99646948    0.00000000   -0.00000000
     atom    2 type  1   force =     0.99646948    0.00000000   -0.00000000
     The local contribution  to forces
     atom    1 type  1   force =     0.88932605    0.00000000    0.00000000
     atom    2 type  1   force =    -0.88934523    0.00000000    0.00000000
     The core correction contribution to forces
     atom    1 type  1   force =     0.00000000    0.00000000    0.00000000
     atom    2 type  1   force =     0.00000000    0.00000000    0.00000000
     The Hubbard contrib.    to forces
     atom    1 type  1   force =     0.00000000    0.00000000    0.00000000
     atom    2 type  1   force =     0.00000000    0.00000000    0.00000000
     The SCF correction term to forces
     atom    1 type  1   force =     0.00000243    0.00000000   -0.00000000
     atom    2 type  1   force =    -0.00000250    0.00000000   -0.00000000

     Total force =     0.001641     Total SCF correction =     0.000003
     Energy error            =      5.9E-05 Ry
     Gradient error          =      1.2E-03 Ry/Bohr

     number of scf cycles    =   9
     number of bfgs steps    =   2

     energy             old  =      -2.3187446051 Ry
     energy             new  =      -2.3186854976 Ry

     CASE: energy            _new > energy            _old

     new trust radius        =       0.0001851110 bohr
     new conv_thr            =       0.0000000002 Ry


ATOMIC_POSITIONS (angstrom)
H             0.0540902000        0.0000000000        0.0000000000
H             0.8059098000        0.0000000000        0.0000000000



     Writing config-only to output data dir ./.save/
     NEW-OLD atomic charge density approx. for the potential

     negative rho (up, down):  2.167E-02 0.000E+00

     total cpu time spent up to now is       54.6 secs

     Self-consistent Calculation

     iteration #  1     ecut=    30.00 Ry     beta= 0.70
     Davidson diagonalization with overlap

---- Real-time Memory Report at c_bands before calling an iterative solver
           506 MiB given to the printing process from OS
             0 MiB allocation reported by mallinfo(arena+hblkhd)
           381 MiB available memory on the node where the printing process lives
------------------
     ethr =  1.00E-06,  avg # of iterations =  2.0

     Threshold (ethr) on eigenvalues was too large:
     Diagonalizing with lowered threshold

     Davidson diagonalization with overlap

---- Real-time Memory Report at c_bands before calling an iterative solver
           506 MiB given to the printing process from OS
             0 MiB allocation reported by mallinfo(arena+hblkhd)
           348 MiB available memory on the node where the printing process lives
------------------
     ethr =  7.00E-08,  avg # of iterations =  1.0

     negative rho (up, down):  2.161E-02 0.000E+00

     total cpu time spent up to now is       56.1 secs

     total energy              =      -2.31873454 Ry
     estimated scf accuracy    <       0.00000148 Ry

     iteration #  2     ecut=    30.00 Ry     beta= 0.70
     Davidson diagonalization with overlap

---- Real-time Memory Report at c_bands before calling an iterative solver
           506 MiB given to the printing process from OS
             0 MiB allocation reported by mallinfo(arena+hblkhd)
           200 MiB available memory on the node where the printing process lives
------------------
     ethr =  7.41E-08,  avg # of iterations =  1.0

     negative rho (up, down):  2.160E-02 0.000E+00

     total cpu time spent up to now is       57.1 secs

     total energy              =      -2.31874174 Ry
     estimated scf accuracy    <       0.00000002 Ry

     iteration #  3     ecut=    30.00 Ry     beta= 0.70
     Davidson diagonalization with overlap

---- Real-time Memory Report at c_bands before calling an iterative solver
           506 MiB given to the printing process from OS
             0 MiB allocation reported by mallinfo(arena+hblkhd)
           182 MiB available memory on the node where the printing process lives
------------------
     ethr =  9.04E-10,  avg # of iterations =  2.0

     negative rho (up, down):  2.160E-02 0.000E+00

     total cpu time spent up to now is       58.1 secs

     total energy              =      -2.31874309 Ry
     estimated scf accuracy    <          7.6E-10 Ry

     iteration #  4     ecut=    30.00 Ry     beta= 0.70
     Davidson diagonalization with overlap

---- Real-time Memory Report at c_bands before calling an iterative solver
           506 MiB given to the printing process from OS
             0 MiB allocation reported by mallinfo(arena+hblkhd)
           164 MiB available memory on the node where the printing process lives
------------------
     ethr =  3.81E-11,  avg # of iterations =  2.0

     negative rho (up, down):  2.160E-02 0.000E+00

     total cpu time spent up to now is       59.1 secs

     End of self-consistent calculation

          k =-0.5000-0.5000-0.5000 ( 74736 PWs)   bands (ev):

   -10.3017  -0.6311

     occupation numbers 
     1.0000   0.0000

     highest occupied, lowest unoccupied level (ev):   -10.3017   -0.6311

!    total energy              =      -2.31874307 Ry
     estimated scf accuracy    <          1.8E-12 Ry

     The total energy is the sum of the following terms:
     one-electron contribution =      -4.19883489 Ry
     hartree contribution      =       2.22880002 Ry
     xc contribution           =      -1.37843994 Ry
     ewald contribution        =       1.02973174 Ry

     convergence has been achieved in   4 iterations

     Forces acting on atoms (cartesian axes, Ry/au):

     atom    1 type  1   force =     0.00208022    0.00000000    0.00000000
     atom    2 type  1   force =    -0.00208022    0.00000000    0.00000000
     The non-local contrib.  to forces
     atom    1 type  1   force =     0.10548717    0.00000000    0.00000000
     atom    2 type  1   force =    -0.10550093    0.00000000    0.00000000
     The ionic contribution  to forces
     atom    1 type  1   force =    -0.99039953    0.00000000   -0.00000000
     atom    2 type  1   force =     0.99039953   -0.00000000   -0.00000000
     The local contribution  to forces
     atom    1 type  1   force =     0.88697154    0.00000000    0.00000000
     atom    2 type  1   force =    -0.88699925    0.00000000    0.00000000
     The core correction contribution to forces
     atom    1 type  1   force =     0.00000000    0.00000000    0.00000000
     atom    2 type  1   force =     0.00000000    0.00000000    0.00000000
     The Hubbard contrib.    to forces
     atom    1 type  1   force =     0.00000000    0.00000000    0.00000000
     atom    2 type  1   force =     0.00000000    0.00000000    0.00000000
     The SCF correction term to forces
     atom    1 type  1   force =     0.00000034    0.00000000    0.00000000
     atom    2 type  1   force =    -0.00000028    0.00000000    0.00000000

     Total force =     0.002942     Total SCF correction =     0.000000
     Energy error            =      1.5E-06 Ry
     Gradient error          =      2.1E-03 Ry/Bohr

     number of scf cycles    =  10
     number of bfgs steps    =   2

     energy             old  =      -2.3187446051 Ry
     energy             new  =      -2.3187430746 Ry

     CASE: energy            _new > energy            _old

     new trust radius        =       0.0000335491 bohr

     trust_radius < trust_radius_min

     resetting bfgs history

     new conv_thr            =       0.0000000002 Ry


ATOMIC_POSITIONS (angstrom)
H             0.0552360995        0.0000000000        0.0000000000
H             0.8047639005        0.0000000000        0.0000000000



     Writing config-only to output data dir ./.save/
     NEW-OLD atomic charge density approx. for the potential

     negative rho (up, down):  2.163E-02 0.000E+00

     total cpu time spent up to now is       60.2 secs

     Self-consistent Calculation

     iteration #  1     ecut=    30.00 Ry     beta= 0.70
     Davidson diagonalization with overlap

---- Real-time Memory Report at c_bands before calling an iterative solver
           506 MiB given to the printing process from OS
             0 MiB allocation reported by mallinfo(arena+hblkhd)
           381 MiB available memory on the node where the printing process lives
------------------
     ethr =  1.00E-06,  avg # of iterations =  2.0

     Threshold (ethr) on eigenvalues was too large:
     Diagonalizing with lowered threshold

     Davidson diagonalization with overlap

---- Real-time Memory Report at c_bands before calling an iterative solver
           506 MiB given to the printing process from OS
             0 MiB allocation reported by mallinfo(arena+hblkhd)
           348 MiB available memory on the node where the printing process lives
------------------
     ethr =  7.03E-08,  avg # of iterations =  1.0

     negative rho (up, down):  2.169E-02 0.000E+00

     total cpu time spent up to now is       61.6 secs

     total energy              =      -2.31869150 Ry
     estimated scf accuracy    <       0.00000149 Ry

     iteration #  2     ecut=    30.00 Ry     beta= 0.70
     Davidson diagonalization with overlap

---- Real-time Memory Report at c_bands before calling an iterative solver
           506 MiB given to the printing process from OS
             0 MiB allocation reported by mallinfo(arena+hblkhd)
           200 MiB available memory on the node where the printing process lives
------------------
     ethr =  7.43E-08,  avg # of iterations =  1.0

     negative rho (up, down):  2.170E-02 0.000E+00

     total cpu time spent up to now is       62.6 secs

     total energy              =      -2.31868763 Ry
     estimated scf accuracy    <       0.00000002 Ry

     iteration #  3     ecut=    30.00 Ry     beta= 0.70
     Davidson diagonalization with overlap

---- Real-time Memory Report at c_bands before calling an iterative solver
           506 MiB given to the printing process from OS
             0 MiB allocation reported by mallinfo(arena+hblkhd)
           182 MiB available memory on the node where the printing process lives
------------------
     ethr =  8.99E-10,  avg # of iterations =  2.0

     negative rho (up, down):  2.170E-02 0.000E+00

     total cpu time spent up to now is       63.7 secs

     total energy              =      -2.31868497 Ry
     estimated scf accuracy    <          7.4E-10 Ry

     iteration #  4     ecut=    30.00 Ry     beta= 0.70
     Davidson diagonalization with overlap

---- Real-time Memory Report at c_bands before calling an iterative solver
           506 MiB given to the printing process from OS
             0 MiB allocation reported by mallinfo(arena+hblkhd)
           164 MiB available memory on the node where the printing process lives
------------------
     ethr =  3.68E-11,  avg # of iterations =  2.0

     negative rho (up, down):  2.170E-02 0.000E+00

     total cpu time spent up to now is       64.7 secs

     End of self-consistent calculation

          k =-0.5000-0.5000-0.5000 ( 74736 PWs)   bands (ev):

   -10.3131  -0.6371

     occupation numbers 
     1.0000   0.0000

     highest occupied, lowest unoccupied level (ev):   -10.3131   -0.6371

!    total energy              =      -2.31868550 Ry
     estimated scf accuracy    <          5.7E-12 Ry

     The total energy is the sum of the following terms:
     one-electron contribution =      -4.20469910 Ry
     hartree contribution      =       2.23186378 Ry
     xc contribution           =      -1.37988434 Ry
     ewald contribution        =       1.03403416 Ry

     convergence has been achieved in   4 iterations

     Forces acting on atoms (cartesian axes, Ry/au):

     atom    1 type  1   force =    -0.00116046    0.00000000    0.00000000
     atom    2 type  1   force =     0.00116046    0.00000000    0.00000000
     The non-local contrib.  to forces
     atom    1 type  1   force =     0.10598513    0.00000000    0.00000000
     atom    2 type  1   force =    -0.10595671    0.00000000    0.00000000
     The ionic contribution  to forces
     atom    1 type  1   force =    -0.99646948    0.00000000   -0.00000000
     atom    2 type  1   force =     0.99646948    0.00000000   -0.00000000
     The local contribution  to forces
     atom    1 type  1   force =     0.88932602    0.00000000    0.00000000
     atom    2 type  1   force =    -0.88934525    0.00000000    0.00000000
     The core correction contribution to forces
     atom    1 type  1   force =     0.00000000    0.00000000    0.00000000
     atom    2 type  1   force =     0.00000000    0.00000000    0.00000000
     The Hubbard contrib.    to forces
     atom    1 type  1   force =     0.00000000    0.00000000    0.00000000
     atom    2 type  1   force =     0.00000000    0.00000000    0.00000000
     The SCF correction term to forces
     atom    1 type  1   force =     0.00000245    0.00000000   -0.00000000
     atom    2 type  1   force =    -0.00000250    0.00000000    0.00000000

     Total force =     0.001641     Total SCF correction =     0.000003
     Energy error            =      5.9E-05 Ry
     Gradient error          =      1.2E-03 Ry/Bohr

     number of scf cycles    =  11
     number of bfgs steps    =   2

     energy             old  =      -2.3187446051 Ry
     energy             new  =      -2.3186854977 Ry

     CASE: energy            _new > energy            _old

     new trust radius        =       0.0001851112 bohr
     new conv_thr            =       0.0000000002 Ry


ATOMIC_POSITIONS (angstrom)
H             0.0540902001        0.0000000000        0.0000000000
H             0.8059097999        0.0000000000        0.0000000000



     Writing config-only to output data dir ./.save/
     NEW-OLD atomic charge density approx. for the potential

     negative rho (up, down):  2.167E-02 0.000E+00

     total cpu time spent up to now is       65.8 secs

     Self-consistent Calculation

     iteration #  1     ecut=    30.00 Ry     beta= 0.70
     Davidson diagonalization with overlap

---- Real-time Memory Report at c_bands before calling an iterative solver
           506 MiB given to the printing process from OS
             0 MiB allocation reported by mallinfo(arena+hblkhd)
           381 MiB available memory on the node where the printing process lives
------------------
     ethr =  1.00E-06,  avg # of iterations =  2.0

     Threshold (ethr) on eigenvalues was too large:
     Diagonalizing with lowered threshold

     Davidson diagonalization with overlap

---- Real-time Memory Report at c_bands before calling an iterative solver
           506 MiB given to the printing process from OS
             0 MiB allocation reported by mallinfo(arena+hblkhd)
           348 MiB available memory on the node where the printing process lives
------------------
     ethr =  7.00E-08,  avg # of iterations =  1.0

     negative rho (up, down):  2.161E-02 0.000E+00

     total cpu time spent up to now is       67.2 secs

     total energy              =      -2.31873454 Ry
     estimated scf accuracy    <       0.00000148 Ry

     iteration #  2     ecut=    30.00 Ry     beta= 0.70
     Davidson diagonalization with overlap

---- Real-time Memory Report at c_bands before calling an iterative solver
           506 MiB given to the printing process from OS
             0 MiB allocation reported by mallinfo(arena+hblkhd)
           200 MiB available memory on the node where the printing process lives
------------------
     ethr =  7.41E-08,  avg # of iterations =  1.0

     negative rho (up, down):  2.160E-02 0.000E+00

     total cpu time spent up to now is       68.2 secs

     total energy              =      -2.31874174 Ry
     estimated scf accuracy    <       0.00000002 Ry

     iteration #  3     ecut=    30.00 Ry     beta= 0.70
     Davidson diagonalization with overlap

---- Real-time Memory Report at c_bands before calling an iterative solver
           506 MiB given to the printing process from OS
             0 MiB allocation reported by mallinfo(arena+hblkhd)
           182 MiB available memory on the node where the printing process lives
------------------
     ethr =  9.04E-10,  avg # of iterations =  2.0

     negative rho (up, down):  2.160E-02 0.000E+00

     total cpu time spent up to now is       69.3 secs

[...]

     negative rho (up, down):  2.160E-02 0.000E+00

     total cpu time spent up to now is      272.6 secs

     total energy              =      -2.31874221 Ry
     estimated scf accuracy    <       0.00000002 Ry

     iteration #  3     ecut=    30.00 Ry     beta= 0.70
     Davidson diagonalization with overlap

---- Real-time Memory Report at c_bands before calling an iterative solver
           506 MiB given to the printing process from OS
             0 MiB allocation reported by mallinfo(arena+hblkhd)
           182 MiB available memory on the node where the printing process lives
------------------
     ethr =  8.42E-10,  avg # of iterations =  2.0

     negative rho (up, down):  2.160E-02 0.000E+00

     total cpu time spent up to now is      273.7 secs

     total energy              =      -2.31874276 Ry
     estimated scf accuracy    <          7.7E-10 Ry

     iteration #  4     ecut=    30.00 Ry     beta= 0.70
     Davidson diagonalization with overlap

---- Real-time Memory Report at c_bands before calling an iterative solver
           506 MiB given to the printing process from OS
             0 MiB allocation reported by mallinfo(arena+hblkhd)
           163 MiB available memory on the node where the printing process lives
------------------
     ethr =  3.85E-11,  avg # of iterations =  2.0

     negative rho (up, down):  2.160E-02 0.000E+00

     total cpu time spent up to now is      274.7 secs

     End of self-consistent calculation

          k =-0.5000-0.5000-0.5000 ( 74736 PWs)   bands (ev):

   -10.3017  -0.6882

     occupation numbers 
     1.0000   0.0000

     highest occupied, lowest unoccupied level (ev):   -10.3017   -0.6882

!    total energy              =      -2.31874310 Ry
     estimated scf accuracy    <          1.5E-11 Ry

     The total energy is the sum of the following terms:
     one-electron contribution =      -4.19883227 Ry
     hartree contribution      =       2.22879500 Ry
     xc contribution           =      -1.37843764 Ry
     ewald contribution        =       1.02973180 Ry

     convergence has been achieved in   4 iterations

     Forces acting on atoms (cartesian axes, Ry/au):

     atom    1 type  1   force =     0.00207847    0.00000000    0.00000000
     atom    2 type  1   force =    -0.00207847    0.00000000    0.00000000
     The non-local contrib.  to forces
     atom    1 type  1   force =     0.10548714    0.00000000    0.00000000
     atom    2 type  1   force =    -0.10550092    0.00000000    0.00000000
     The ionic contribution  to forces
     atom    1 type  1   force =    -0.99039962   -0.00000000   -0.00000000
     atom    2 type  1   force =     0.99039962   -0.00000000   -0.00000000
     The local contribution  to forces
     atom    1 type  1   force =     0.88696975    0.00000000    0.00000000
     atom    2 type  1   force =    -0.88699758    0.00000000    0.00000000
     The core correction contribution to forces
     atom    1 type  1   force =     0.00000000    0.00000000    0.00000000
     atom    2 type  1   force =     0.00000000    0.00000000    0.00000000
     The Hubbard contrib.    to forces
     atom    1 type  1   force =     0.00000000    0.00000000    0.00000000
     atom    2 type  1   force =     0.00000000    0.00000000    0.00000000
     The SCF correction term to forces
     atom    1 type  1   force =     0.00000035    0.00000000   -0.00000000
     atom    2 type  1   force =    -0.00000045   -0.00000000    0.00000000

     Total force =     0.002939     Total SCF correction =     0.000001
     Energy error            =      1.5E-06 Ry
     Gradient error          =      2.1E-03 Ry/Bohr

     number of scf cycles    =  48
     number of bfgs steps    =   2

     energy             old  =      -2.3187446051 Ry
     energy             new  =      -2.3187430975 Ry

     CASE: energy            _new > energy            _old

     new trust radius        =       0.0000338820 bohr

     trust_radius < trust_radius_min

     resetting bfgs history

     new conv_thr            =       0.0000000002 Ry


ATOMIC_POSITIONS (angstrom)
H             0.0552360995        0.0000000000        0.0000000000
H             0.8047639005        0.0000000000        0.0000000000



     Writing config-only to output data dir ./.save/
     NEW-OLD atomic charge density approx. for the potential

     negative rho (up, down):  2.163E-02 0.000E+00

     total cpu time spent up to now is      275.8 secs

     Self-consistent Calculation

     iteration #  1     ecut=    30.00 Ry     beta= 0.70
     Davidson diagonalization with overlap

---- Real-time Memory Report at c_bands before calling an iterative solver
           506 MiB given to the printing process from OS
             0 MiB allocation reported by mallinfo(arena+hblkhd)
           381 MiB available memory on the node where the printing process lives
------------------
     ethr =  1.00E-06,  avg # of iterations =  2.0

     Threshold (ethr) on eigenvalues was too large:
     Diagonalizing with lowered threshold

     Davidson diagonalization with overlap

---- Real-time Memory Report at c_bands before calling an iterative solver
           506 MiB given to the printing process from OS
             0 MiB allocation reported by mallinfo(arena+hblkhd)
           348 MiB available memory on the node where the printing process lives
------------------
     ethr =  7.16E-08,  avg # of iterations =  1.0

     negative rho (up, down):  2.169E-02 0.000E+00

     total cpu time spent up to now is      277.2 secs

     total energy              =      -2.31869147 Ry
     estimated scf accuracy    <       0.00000150 Ry

     iteration #  2     ecut=    30.00 Ry     beta= 0.70
     Davidson diagonalization with overlap

---- Real-time Memory Report at c_bands before calling an iterative solver
           506 MiB given to the printing process from OS
             0 MiB allocation reported by mallinfo(arena+hblkhd)
           200 MiB available memory on the node where the printing process lives
------------------
     ethr =  7.51E-08,  avg # of iterations =  1.0

     negative rho (up, down):  2.170E-02 0.000E+00

     total cpu time spent up to now is      278.2 secs

     total energy              =      -2.31868788 Ry
     estimated scf accuracy    <       0.00000002 Ry

     iteration #  3     ecut=    30.00 Ry     beta= 0.70
     Davidson diagonalization with overlap

---- Real-time Memory Report at c_bands before calling an iterative solver
           506 MiB given to the printing process from OS
             0 MiB allocation reported by mallinfo(arena+hblkhd)
           182 MiB available memory on the node where the printing process lives
------------------
     ethr =  8.40E-10,  avg # of iterations =  2.0

     negative rho (up, down):  2.170E-02 0.000E+00

     total cpu time spent up to now is      279.2 secs

     total energy              =      -2.31868498 Ry
     estimated scf accuracy    <          6.6E-10 Ry

     iteration #  4     ecut=    30.00 Ry     beta= 0.70
     Davidson diagonalization with overlap

---- Real-time Memory Report at c_bands before calling an iterative solver
           506 MiB given to the printing process from OS
             0 MiB allocation reported by mallinfo(arena+hblkhd)
           164 MiB available memory on the node where the printing process lives
------------------
     ethr =  3.30E-11,  avg # of iterations =  2.0

     negative rho (up, down):  2.170E-02 0.000E+00

     total cpu time spent up to now is      280.2 secs

     End of self-consistent calculation

          k =-0.5000-0.5000-0.5000 ( 74736 PWs)   bands (ev):

   -10.3131  -0.6920

     occupation numbers 
     1.0000   0.0000

     highest occupied, lowest unoccupied level (ev):   -10.3131   -0.6920

!    total energy              =      -2.31868551 Ry
     estimated scf accuracy    <          2.0E-11 Ry

     The total energy is the sum of the following terms:
     one-electron contribution =      -4.20469795 Ry
     hartree contribution      =       2.23186151 Ry
     xc contribution           =      -1.37988323 Ry
     ewald contribution        =       1.03403416 Ry

     convergence has been achieved in   4 iterations

     Forces acting on atoms (cartesian axes, Ry/au):

     atom    1 type  1   force =    -0.00116107    0.00000000    0.00000000
     atom    2 type  1   force =     0.00116107    0.00000000    0.00000000
     The non-local contrib.  to forces
     atom    1 type  1   force =     0.10598511    0.00000000    0.00000000
     atom    2 type  1   force =    -0.10595670    0.00000000    0.00000000
     The ionic contribution  to forces
     atom    1 type  1   force =    -0.99646948    0.00000000   -0.00000000
     atom    2 type  1   force =     0.99646948    0.00000000   -0.00000000
     The local contribution  to forces
     atom    1 type  1   force =     0.88932449    0.00000000    0.00000000
     atom    2 type  1   force =    -0.88934400    0.00000000    0.00000000
     The core correction contribution to forces
     atom    1 type  1   force =     0.00000000    0.00000000    0.00000000
     atom    2 type  1   force =     0.00000000    0.00000000    0.00000000
     The Hubbard contrib.    to forces
     atom    1 type  1   force =     0.00000000    0.00000000    0.00000000
     atom    2 type  1   force =     0.00000000    0.00000000    0.00000000
     The SCF correction term to forces
     atom    1 type  1   force =     0.00000328    0.00000000   -0.00000000
     atom    2 type  1   force =    -0.00000325    0.00000000   -0.00000000

     Total force =     0.001642     Total SCF correction =     0.000005
     Energy error            =      5.9E-05 Ry
     Gradient error          =      1.2E-03 Ry/Bohr

     number of scf cycles    =  49
     number of bfgs steps    =   2

     energy             old  =      -2.3187446051 Ry
     energy             new  =      -2.3186855093 Ry

     CASE: energy            _new > energy            _old

     new trust radius        =       0.0001851417 bohr
     new conv_thr            =       0.0000000002 Ry


ATOMIC_POSITIONS (angstrom)
H             0.0540902163        0.0000000000        0.0000000000
H             0.8059097837        0.0000000000        0.0000000000



     Writing config-only to output data dir ./.save/
     NEW-OLD atomic charge density approx. for the potential

     negative rho (up, down):  2.167E-02 0.000E+00

     total cpu time spent up to now is      281.3 secs

     Self-consistent Calculation

     iteration #  1     ecut=    30.00 Ry     beta= 0.70
     Davidson diagonalization with overlap

---- Real-time Memory Report at c_bands before calling an iterative solver
           506 MiB given to the printing process from OS
             0 MiB allocation reported by mallinfo(arena+hblkhd)
           381 MiB available memory on the node where the printing process lives
------------------
     ethr =  1.00E-06,  avg # of iterations =  2.0

     Threshold (ethr) on eigenvalues was too large:
     Diagonalizing with lowered threshold

     Davidson diagonalization with overlap

---- Real-time Memory Report at c_bands before calling an iterative solver
           506 MiB given to the printing process from OS
             0 MiB allocation reported by mallinfo(arena+hblkhd)
           348 MiB available memory on the node where the printing process lives
------------------
     ethr =  7.10E-08,  avg # of iterations =  1.0

     negative rho (up, down):  2.161E-02 0.000E+00

     total cpu time spent up to now is      282.8 secs

     total energy              =      -2.31873457 Ry
     estimated scf accuracy    <       0.00000149 Ry

     iteration #  2     ecut=    30.00 Ry     beta= 0.70
     Davidson diagonalization with overlap

---- Real-time Memory Report at c_bands before calling an iterative solver
           506 MiB given to the printing process from OS
             0 MiB allocation reported by mallinfo(arena+hblkhd)
           200 MiB available memory on the node where the printing process lives
------------------
     ethr =  7.44E-08,  avg # of iterations =  1.0

     negative rho (up, down):  2.160E-02 0.000E+00

     total cpu time spent up to now is      283.8 secs

     total energy              =      -2.31874221 Ry
     estimated scf accuracy    <       0.00000002 Ry

     iteration #  3     ecut=    30.00 Ry     beta= 0.70
     Davidson diagonalization with overlap

---- Real-time Memory Report at c_bands before calling an iterative solver
           506 MiB given to the printing process from OS
             0 MiB allocation reported by mallinfo(arena+hblkhd)
           182 MiB available memory on the node where the printing process lives
------------------
     ethr =  8.42E-10,  avg # of iterations =  2.0

     negative rho (up, down):  2.160E-02 0.000E+00

     total cpu time spent up to now is      284.9 secs

     total energy              =      -2.31874276 Ry
     estimated scf accuracy    <          7.7E-10 Ry

     iteration #  4     ecut=    30.00 Ry     beta= 0.70
     Davidson diagonalization with overlap

---- Real-time Memory Report at c_bands before calling an iterative solver
           506 MiB given to the printing process from OS
             0 MiB allocation reported by mallinfo(arena+hblkhd)
           164 MiB available memory on the node where the printing process lives
------------------
     ethr =  3.85E-11,  avg # of iterations =  2.0

     negative rho (up, down):  2.160E-02 0.000E+00

     total cpu time spent up to now is      285.8 secs

     End of self-consistent calculation

          k =-0.5000-0.5000-0.5000 ( 74736 PWs)   bands (ev):

   -10.3017  -0.6882

     occupation numbers 
     1.0000   0.0000

     highest occupied, lowest unoccupied level (ev):   -10.3017   -0.6882

!    total energy              =      -2.31874310 Ry
     estimated scf accuracy    <          1.5E-11 Ry

     The total energy is the sum of the following terms:
     one-electron contribution =      -4.19883227 Ry
     hartree contribution      =       2.22879500 Ry
     xc contribution           =      -1.37843764 Ry
     ewald contribution        =       1.02973180 Ry

     convergence has been achieved in   4 iterations

     Forces acting on atoms (cartesian axes, Ry/au):

     atom    1 type  1   force =     0.00207847    0.00000000    0.00000000
     atom    2 type  1   force =    -0.00207847    0.00000000    0.00000000
     The non-local contrib.  to forces
     atom    1 type  1   force =     0.10548714    0.00000000    0.00000000
     atom    2 type  1   force =    -0.10550092    0.00000000    0.00000000
     The ionic contribution  to forces
     atom    1 type  1   force =    -0.99039962    0.00000000   -0.00000000
     atom    2 type  1   force =     0.99039962   -0.00000000   -0.00000000
     The local contribution  to forces
     atom    1 type  1   force =     0.88696975    0.00000000    0.00000000
     atom    2 type  1   force =    -0.88699758    0.00000000    0.00000000
     The core correction contribution to forces
     atom    1 type  1   force =     0.00000000    0.00000000    0.00000000
     atom    2 type  1   force =     0.00000000    0.00000000    0.00000000
     The Hubbard contrib.    to forces
     atom    1 type  1   force =     0.00000000    0.00000000    0.00000000
     atom    2 type  1   force =     0.00000000    0.00000000    0.00000000
     The SCF correction term to forces
     atom    1 type  1   force =     0.00000035    0.00000000   -0.00000000
     atom    2 type  1   force =    -0.00000045   -0.00000000    0.00000000

     Total force =     0.002939     Total SCF correction =     0.000001
     Energy error            =      1.5E-06 Ry
     Gradient error          =      2.1E-03 Ry/Bohr

     number of scf cycles    =  50
     number of bfgs steps    =   2

     energy             old  =      -2.3187446051 Ry
     energy             new  =      -2.3187430975 Ry

     CASE: energy            _new > energy            _old

     new trust radius        =       0.0000338820 bohr

     trust_radius < trust_radius_min

     resetting bfgs history


     The maximum number of steps has been reached.

     End of BFGS Geometry Optimization

ATOMIC_POSITIONS (angstrom)
H             0.0552360995        0.0000000000        0.0000000000
H             0.8047639005        0.0000000000        0.0000000000



     Writing config-only to output data dir ./.save/
     NEW-OLD atomic charge density approx. for the potential

     negative rho (up, down):  2.163E-02 0.000E+00

     Writing all to output data dir ./.save/

     init_run     :      0.98s CPU      1.04s WALL (       1 calls)
     electrons    :    231.83s CPU    233.68s WALL (      50 calls)
     update_pot   :     33.28s CPU     33.90s WALL (      50 calls)
     forces       :     13.35s CPU     13.52s WALL (      50 calls)

     Called by init_run:
     wfcinit      :      0.10s CPU      0.10s WALL (       1 calls)
     wfcinit:atom :      0.00s CPU      0.00s WALL (       1 calls)
     wfcinit:wfcr :      0.09s CPU      0.09s WALL (       1 calls)
     potinit      :      0.56s CPU      0.58s WALL (       1 calls)
     hinit0       :      0.05s CPU      0.06s WALL (       1 calls)

     Called by electrons:
     c_bands      :     56.76s CPU     56.81s WALL (     250 calls)
     sum_band     :     37.66s CPU     37.88s WALL (     250 calls)
     v_of_rho     :    139.28s CPU    140.17s WALL (     253 calls)
     v_h          :      9.62s CPU      9.63s WALL (     253 calls)
     v_xc         :    129.66s CPU    130.54s WALL (     253 calls)
     newd         :     11.64s CPU     11.65s WALL (     253 calls)
     mix_rho      :     11.70s CPU     12.23s WALL (     250 calls)

     Called by c_bands:
     init_us_2    :      1.01s CPU      1.01s WALL (     501 calls)
     init_us_2:cp :      1.01s CPU      1.01s WALL (     501 calls)
     cegterg      :     56.08s CPU     56.14s WALL (     250 calls)

     Called by sum_band:
     sum_band:wei :      0.00s CPU      0.00s WALL (     250 calls)
     sum_band:loo :     11.81s CPU     11.84s WALL (     250 calls)
     sum_band:buf :      0.00s CPU      0.00s WALL (     250 calls)
     sum_band:ini :      0.52s CPU      0.52s WALL (     250 calls)
     sum_band:cal :      0.13s CPU      0.13s WALL (     250 calls)
     sum_band:bec :      0.00s CPU      0.00s WALL (     250 calls)
     addusdens    :      3.11s CPU      3.29s WALL (     250 calls)
     addusd:skk   :      0.88s CPU      0.95s WALL (     250 calls)
     addusd:dgemm :      0.67s CPU      0.71s WALL (     250 calls)
     addusd:qvan2 :      0.84s CPU      0.88s WALL (     250 calls)

     Called by *egterg:
     cdiaghg      :      0.01s CPU      0.01s WALL (     607 calls)
     cegterg:over :      0.59s CPU      0.59s WALL (     454 calls)
     cegterg:upda :      0.42s CPU      0.42s WALL (     454 calls)
     cegterg:last :      0.76s CPU      0.77s WALL (     432 calls)
     h_psi        :     53.30s CPU     53.34s WALL (     705 calls)
     s_psi        :      0.27s CPU      0.27s WALL (     705 calls)
     g_psi        :      0.18s CPU      0.18s WALL (     454 calls)

     Called by h_psi:
     h_psi:calbec :      0.34s CPU      0.34s WALL (     705 calls)
     vloc_psi     :     52.53s CPU     52.56s WALL (     705 calls)
     add_vuspsi   :      0.27s CPU      0.28s WALL (     705 calls)

     General routines
     calbec       :      0.56s CPU      0.56s WALL (    1155 calls)
     fft          :     88.38s CPU     88.42s WALL (    2981 calls)
     ffts         :      7.61s CPU      7.61s WALL (     250 calls)
     fftw         :     57.17s CPU     57.22s WALL (    2930 calls)


     PWSCF        :   4m44.42s CPU   4m47.14s WALL


   This run was terminated on:   4:22:36  28Feb2022            

=------------------------------------------------------------------------------=
   JOB DONE.
=------------------------------------------------------------------------------=
