
     Program PWSCF v.7.0 starts on 28Feb2022 at  2:54:44 

     This program is part of the open-source Quantum ESPRESSO suite
     for quantum simulation of materials; please cite
         "P. Giannozzi et al., J. Phys.:Condens. Matter 21 395502 (2009);
         "P. Giannozzi et al., J. Phys.:Condens. Matter 29 465901 (2017);
         "P. Giannozzi et al., J. Chem. Phys. 152 154105 (2020);
          URL http://www.quantum-espresso.org", 
     in publications or presentations arising from this work. More details at
     http://www.quantum-espresso.org/quote

     Serial version
     564 MiB available memory on the printing compute node when the environment starts

     Waiting for input...
     Reading input from standard input

     Current dimensions of program PWSCF are:
     Max number of different atomic species (ntypx) = 10
     Max number of k-points (npk) =  40000
     Max angular momentum in pseudopotentials (lmaxx) =  4

    ============================================================
    |  pseudopotential report for atomic species:  1           |
    |        pseudo potential version   7   3   2              |
    ------------------------------------------------------------
    |  hydrogen            PBE                  exchange-corr  |
    |  z =   1.    zv( 1) =   1.    exfact =   5.00000         |
    |  ifpcor =  0           atomic energy =  -0.91772 Ry      |
    |  index    orbital      occupation    energy              |
    |    1        100           1.00       -0.48               |
    |  rinner =  0.5000                                        |
    |    new generation scheme:                                |
    |    nbeta =  1     kkbeta =  271     rcloc =    0.6000    |
    |    ibeta    l     epsilon   rcut                         |
    |      1       0      -0.48   0.80                         |
    ============================================================

     IMPORTANT: XC functional enforced from input :
     Exchange-correlation= BLYP
                           (   1   3   1   3   0   0   0)
     Any further DFT definition will be discarded
     Please, verify this is what you really want


     G-vector sticks info
     --------------------
     sticks:   dense  smooth     PW     G-vecs:    dense   smooth      PW
     Sum        1433    1433    421                40651    40651    6451

     Using Slab Decomposition



     bravais-lattice index     =            1
     lattice parameter (alat)  =      30.0000  a.u.
     unit-cell volume          =   27000.0000 (a.u.)^3
     number of atoms/cell      =            2
     number of atomic types    =            1
     number of electrons       =         2.00
     number of Kohn-Sham states=            2
     kinetic-energy cutoff     =       5.0000  Ry
     charge density cutoff     =      20.0000  Ry
     scf convergence threshold =      1.0E-08
     mixing beta               =       0.7000
     number of iterations used =            8  plain     mixing
     energy convergence thresh.=      1.0E-04
     force convergence thresh. =      1.0E-03
     Exchange-correlation= BLYP
                           (   1   3   1   3   0   0   0)
     nstep                     =           50


     celldm(1)=  30.000000  celldm(2)=   0.000000  celldm(3)=   0.000000
     celldm(4)=   0.000000  celldm(5)=   0.000000  celldm(6)=   0.000000

     crystal axes: (cart. coord. in units of alat)
               a(1) = (   1.000000   0.000000   0.000000 )  
               a(2) = (   0.000000   1.000000   0.000000 )  
               a(3) = (   0.000000   0.000000   1.000000 )  

     reciprocal axes: (cart. coord. in units 2 pi/alat)
               b(1) = (  1.000000  0.000000  0.000000 )  
               b(2) = (  0.000000  1.000000  0.000000 )  
               b(3) = (  0.000000  0.000000  1.000000 )  


     PseudoPot. # 1 for hy read from file:
     /root/q-e/pseudo/H_US.van
     MD5 check sum: a9a9bfe98ff56cf4de197d71fc46bb44
     Pseudo is Ultrasoft, Zval =  1.0
     Generated by Vanderbilt code, v. 7.3.2
     Using radial grid of  399 points,  1 beta functions with: 
                l(1) =   0
     Q(r) pseudized with  8 coefficients,  rinner =    0.500

     atomic species   valence    mass     pseudopotential
        H              1.00     1.00784     hy( 1.00)

      8 Sym. Ops. (no inversion) found


                                    s                        frac. trans.

      isym =  1     identity                                     

 cryst.   s( 1) = (     1          0          0      )
                  (     0          1          0      )
                  (     0          0          1      )

 cart.    s( 1) = (  1.0000000  0.0000000  0.0000000 )
                  (  0.0000000  1.0000000  0.0000000 )
                  (  0.0000000  0.0000000  1.0000000 )


      isym =  2     180 deg rotation - cart. axis [1,0,0]        

 cryst.   s( 2) = (     1          0          0      )
                  (     0         -1          0      )
                  (     0          0         -1      )

 cart.    s( 2) = (  1.0000000  0.0000000  0.0000000 )
                  (  0.0000000 -1.0000000  0.0000000 )
                  (  0.0000000  0.0000000 -1.0000000 )


      isym =  3      90 deg rotation - cart. axis [-1,0,0]       

 cryst.   s( 3) = (     1          0          0      )
                  (     0          0         -1      )
                  (     0          1          0      )

 cart.    s( 3) = (  1.0000000  0.0000000  0.0000000 )
                  (  0.0000000  0.0000000  1.0000000 )
                  (  0.0000000 -1.0000000  0.0000000 )


      isym =  4      90 deg rotation - cart. axis [1,0,0]        

 cryst.   s( 4) = (     1          0          0      )
                  (     0          0          1      )
                  (     0         -1          0      )

 cart.    s( 4) = (  1.0000000  0.0000000  0.0000000 )
                  (  0.0000000  0.0000000 -1.0000000 )
                  (  0.0000000  1.0000000  0.0000000 )


      isym =  5     inv. 180 deg rotation - cart. axis [0,0,1]   

 cryst.   s( 5) = (     1          0          0      )
                  (     0          1          0      )
                  (     0          0         -1      )

 cart.    s( 5) = (  1.0000000  0.0000000  0.0000000 )
                  (  0.0000000  1.0000000  0.0000000 )
                  (  0.0000000  0.0000000 -1.0000000 )


      isym =  6     inv. 180 deg rotation - cart. axis [0,1,0]   

 cryst.   s( 6) = (     1          0          0      )
                  (     0         -1          0      )
                  (     0          0          1      )

 cart.    s( 6) = (  1.0000000  0.0000000  0.0000000 )
                  (  0.0000000 -1.0000000  0.0000000 )
                  (  0.0000000  0.0000000  1.0000000 )


      isym =  7     inv. 180 deg rotation - cart. axis [0,1,1]   

 cryst.   s( 7) = (     1          0          0      )
                  (     0          0         -1      )
                  (     0         -1          0      )

 cart.    s( 7) = (  1.0000000  0.0000000  0.0000000 )
                  (  0.0000000  0.0000000 -1.0000000 )
                  (  0.0000000 -1.0000000  0.0000000 )


      isym =  8     inv. 180 deg rotation - cart. axis [0,1,-1]  

 cryst.   s( 8) = (     1          0          0      )
                  (     0          0          1      )
                  (     0          1          0      )

 cart.    s( 8) = (  1.0000000  0.0000000  0.0000000 )
                  (  0.0000000  0.0000000  1.0000000 )
                  (  0.0000000  1.0000000  0.0000000 )


     point group C_4v (4mm) 
     there are  5 classes
     the character table:

       E     2C4   C2    2s_v  2s_d 
A_1    1.00  1.00  1.00  1.00  1.00
A_2    1.00  1.00  1.00 -1.00 -1.00
B_1    1.00 -1.00  1.00  1.00 -1.00
B_2    1.00 -1.00  1.00 -1.00  1.00
E      2.00  0.00 -2.00  0.00  0.00

     the symmetry operations in each class and the name of the first element:

     E        1
          identity                                               
     2C4      3    4
           90 deg rotation - cart. axis [-1,0,0]                 
     C2       2
          180 deg rotation - cart. axis [1,0,0]                  
     2s_v     5    6
          inv. 180 deg rotation - cart. axis [0,0,1]             
     2s_d     7    8
          inv. 180 deg rotation - cart. axis [0,1,1]             

   Cartesian axes

     site n.     atom                  positions (alat units)
         1           H   tau(   1) = (   0.0000000   0.0000000   0.0000000  )
         2           H   tau(   2) = (   0.0529123   0.0000000   0.0000000  )

   Crystallographic axes

     site n.     atom                  positions (cryst. coord.)
         1           H   tau(   1) = (  0.0000000  0.0000000  0.0000000  )
         2           H   tau(   2) = (  0.0529123  0.0000000  0.0000000  )

     number of k points=     1
                       cart. coord. in units 2pi/alat
        k(    1) = (  -0.5000000  -0.5000000  -0.5000000), wk =   2.0000000

                       cryst. coord.
        k(    1) = (  -0.5000000  -0.5000000  -0.5000000), wk =   2.0000000

     Dense  grid:    40651 G-vectors     FFT dimensions: (  45,  45,  45)

     Dynamical RAM for                 wfc:       0.16 MB

     Dynamical RAM for     wfc (w. buffer):       0.16 MB

     Dynamical RAM for           str. fact:       0.62 MB

     Dynamical RAM for           local pot:       0.00 MB

     Dynamical RAM for          nlocal pot:       0.16 MB

     Dynamical RAM for                qrad:       0.00 MB

     Dynamical RAM for          rho,v,vnew:       3.95 MB

     Dynamical RAM for               rhoin:       1.32 MB

     Dynamical RAM for            rho*nmix:       9.92 MB

     Dynamical RAM for           G-vectors:       2.64 MB

     Dynamical RAM for          h,s,v(r/c):       0.00 MB

     Dynamical RAM for          <psi|beta>:       0.00 MB

     Dynamical RAM for                 psi:       0.31 MB

     Dynamical RAM for                hpsi:       0.31 MB

     Dynamical RAM for                spsi:       0.31 MB

     Dynamical RAM for      wfcinit/wfcrot:       0.31 MB

     Dynamical RAM for           addusdens:       3.72 MB

     Dynamical RAM for          addusforce:       5.27 MB

     Estimated static dynamical RAM per process >      13.55 MB

     Estimated max dynamical RAM per process >      28.75 MB

     Initial potential from superposition of free atoms

     starting charge       2.0000, renormalised to       2.0000

     negative rho (up, down):  5.509E-01 0.000E+00
     Starting wfcs are    2 randomized atomic wfcs

     total cpu time spent up to now is        0.1 secs

     Self-consistent Calculation

     iteration #  1     ecut=     5.00 Ry     beta= 0.70
     Davidson diagonalization with overlap

---- Real-time Memory Report at c_bands before calling an iterative solver
            41 MiB given to the printing process from OS
             0 MiB allocation reported by mallinfo(arena+hblkhd)
           542 MiB available memory on the node where the printing process lives
------------------
     ethr =  1.00E-02,  avg # of iterations =  5.0

     negative rho (up, down):  4.325E-01 0.000E+00

     total cpu time spent up to now is        0.2 secs

     total energy              =      -2.04872183 Ry
     estimated scf accuracy    <       0.03517234 Ry

     iteration #  2     ecut=     5.00 Ry     beta= 0.70
     Davidson diagonalization with overlap

---- Real-time Memory Report at c_bands before calling an iterative solver
            47 MiB given to the printing process from OS
             0 MiB allocation reported by mallinfo(arena+hblkhd)
           529 MiB available memory on the node where the printing process lives
------------------
     ethr =  1.76E-03,  avg # of iterations =  1.0

     negative rho (up, down):  3.794E-01 0.000E+00

     total cpu time spent up to now is        0.2 secs

     total energy              =      -2.07017760 Ry
     estimated scf accuracy    <       0.00141397 Ry

     iteration #  3     ecut=     5.00 Ry     beta= 0.70
     Davidson diagonalization with overlap

---- Real-time Memory Report at c_bands before calling an iterative solver
            48 MiB given to the printing process from OS
             0 MiB allocation reported by mallinfo(arena+hblkhd)
           528 MiB available memory on the node where the printing process lives
------------------
     ethr =  7.07E-05,  avg # of iterations =  9.0

     negative rho (up, down):  3.682E-01 0.000E+00

     total cpu time spent up to now is        0.3 secs

     total energy              =      -2.07490576 Ry
     estimated scf accuracy    <       0.00001777 Ry

     iteration #  4     ecut=     5.00 Ry     beta= 0.70
     Davidson diagonalization with overlap

---- Real-time Memory Report at c_bands before calling an iterative solver
            50 MiB given to the printing process from OS
             0 MiB allocation reported by mallinfo(arena+hblkhd)
           527 MiB available memory on the node where the printing process lives
------------------
     ethr =  8.89E-07,  avg # of iterations =  6.0

     negative rho (up, down):  3.683E-01 0.000E+00

     total cpu time spent up to now is        0.4 secs

     total energy              =      -2.07496078 Ry
     estimated scf accuracy    <       0.00000230 Ry

     iteration #  5     ecut=     5.00 Ry     beta= 0.70
     Davidson diagonalization with overlap

---- Real-time Memory Report at c_bands before calling an iterative solver
            51 MiB given to the printing process from OS
             0 MiB allocation reported by mallinfo(arena+hblkhd)
           526 MiB available memory on the node where the printing process lives
------------------
     ethr =  1.15E-07,  avg # of iterations =  8.0

     negative rho (up, down):  3.682E-01 0.000E+00

     total cpu time spent up to now is        0.5 secs

     total energy              =      -2.07503096 Ry
     estimated scf accuracy    <       0.00000138 Ry

     iteration #  6     ecut=     5.00 Ry     beta= 0.70
     Davidson diagonalization with overlap

---- Real-time Memory Report at c_bands before calling an iterative solver
            52 MiB given to the printing process from OS
             0 MiB allocation reported by mallinfo(arena+hblkhd)
           524 MiB available memory on the node where the printing process lives
------------------
     ethr =  6.91E-08,  avg # of iterations =  7.0

     negative rho (up, down):  3.684E-01 0.000E+00

     total cpu time spent up to now is        0.6 secs

     total energy              =      -2.07504010 Ry
     estimated scf accuracy    <       0.00000303 Ry

     iteration #  7     ecut=     5.00 Ry     beta= 0.70
     Davidson diagonalization with overlap

---- Real-time Memory Report at c_bands before calling an iterative solver
            53 MiB given to the printing process from OS
             0 MiB allocation reported by mallinfo(arena+hblkhd)
           523 MiB available memory on the node where the printing process lives
------------------
     ethr =  6.91E-08,  avg # of iterations =  3.0

     negative rho (up, down):  3.685E-01 0.000E+00

     total cpu time spent up to now is        0.7 secs

     total energy              =      -2.07503430 Ry
     estimated scf accuracy    <       0.00000023 Ry

     iteration #  8     ecut=     5.00 Ry     beta= 0.70
     Davidson diagonalization with overlap

---- Real-time Memory Report at c_bands before calling an iterative solver
            55 MiB given to the printing process from OS
             0 MiB allocation reported by mallinfo(arena+hblkhd)
           522 MiB available memory on the node where the printing process lives
------------------
     ethr =  1.13E-08,  avg # of iterations =  4.0

     negative rho (up, down):  3.689E-01 0.000E+00

     total cpu time spent up to now is        0.7 secs

     total energy              =      -2.07466353 Ry
     estimated scf accuracy    <       0.00000070 Ry

     iteration #  9     ecut=     5.00 Ry     beta= 0.70
     Davidson diagonalization with overlap

---- Real-time Memory Report at c_bands before calling an iterative solver
            56 MiB given to the printing process from OS
             0 MiB allocation reported by mallinfo(arena+hblkhd)
           521 MiB available memory on the node where the printing process lives
------------------
     ethr =  1.13E-08,  avg # of iterations =  5.0

     negative rho (up, down):  3.687E-01 0.000E+00

     total cpu time spent up to now is        0.8 secs

     total energy              =      -2.07506897 Ry
     estimated scf accuracy    <       0.00001122 Ry

     iteration # 10     ecut=     5.00 Ry     beta= 0.70
     Davidson diagonalization with overlap

---- Real-time Memory Report at c_bands before calling an iterative solver
            57 MiB given to the printing process from OS
             0 MiB allocation reported by mallinfo(arena+hblkhd)
           519 MiB available memory on the node where the printing process lives
------------------
     ethr =  1.13E-08,  avg # of iterations =  4.0

     negative rho (up, down):  3.685E-01 0.000E+00

     total cpu time spent up to now is        0.9 secs

     total energy              =      -2.07480108 Ry
     estimated scf accuracy    <       0.00001923 Ry

     iteration # 11     ecut=     5.00 Ry     beta= 0.70
     Davidson diagonalization with overlap

---- Real-time Memory Report at c_bands before calling an iterative solver
            57 MiB given to the printing process from OS
             0 MiB allocation reported by mallinfo(arena+hblkhd)
           519 MiB available memory on the node where the printing process lives
------------------
     ethr =  1.13E-08,  avg # of iterations =  5.0

     negative rho (up, down):  3.685E-01 0.000E+00

     total cpu time spent up to now is        1.0 secs

     total energy              =      -2.07502693 Ry
     estimated scf accuracy    <       0.00000087 Ry

     iteration # 12     ecut=     5.00 Ry     beta= 0.70
     Davidson diagonalization with overlap

---- Real-time Memory Report at c_bands before calling an iterative solver
            57 MiB given to the printing process from OS
             0 MiB allocation reported by mallinfo(arena+hblkhd)
           519 MiB available memory on the node where the printing process lives
------------------
     ethr =  1.13E-08,  avg # of iterations =  3.0

     negative rho (up, down):  3.685E-01 0.000E+00

     total cpu time spent up to now is        1.0 secs

     total energy              =      -2.07502650 Ry
     estimated scf accuracy    <       0.00000171 Ry

     iteration # 13     ecut=     5.00 Ry     beta= 0.70
     Davidson diagonalization with overlap

---- Real-time Memory Report at c_bands before calling an iterative solver
            57 MiB given to the printing process from OS
             0 MiB allocation reported by mallinfo(arena+hblkhd)
           519 MiB available memory on the node where the printing process lives
------------------
     ethr =  1.13E-08,  avg # of iterations =  2.0

     negative rho (up, down):  3.685E-01 0.000E+00

     total cpu time spent up to now is        1.1 secs

     total energy              =      -2.07503092 Ry
     estimated scf accuracy    <       0.00000167 Ry

     iteration # 14     ecut=     5.00 Ry     beta= 0.70
     Davidson diagonalization with overlap

---- Real-time Memory Report at c_bands before calling an iterative solver
            57 MiB given to the printing process from OS
             0 MiB allocation reported by mallinfo(arena+hblkhd)
           519 MiB available memory on the node where the printing process lives
------------------
     ethr =  1.13E-08,  avg # of iterations =  2.0

     negative rho (up, down):  3.686E-01 0.000E+00

     total cpu time spent up to now is        1.2 secs

     total energy              =      -2.07500768 Ry
     estimated scf accuracy    <       0.00000108 Ry

     iteration # 15     ecut=     5.00 Ry     beta= 0.70
     Davidson diagonalization with overlap

---- Real-time Memory Report at c_bands before calling an iterative solver
            57 MiB given to the printing process from OS
             0 MiB allocation reported by mallinfo(arena+hblkhd)
           519 MiB available memory on the node where the printing process lives
------------------
     ethr =  1.13E-08,  avg # of iterations =  3.0

     negative rho (up, down):  3.685E-01 0.000E+00

     total cpu time spent up to now is        1.3 secs

     total energy              =      -2.07501723 Ry
     estimated scf accuracy    <       0.00000004 Ry

     iteration # 16     ecut=     5.00 Ry     beta= 0.70
     Davidson diagonalization with overlap

---- Real-time Memory Report at c_bands before calling an iterative solver
            57 MiB given to the printing process from OS
             0 MiB allocation reported by mallinfo(arena+hblkhd)
           519 MiB available memory on the node where the printing process lives
------------------
     ethr =  1.94E-09,  avg # of iterations =  3.0

     negative rho (up, down):  3.685E-01 0.000E+00

     total cpu time spent up to now is        1.3 secs

     total energy              =      -2.07501670 Ry
     estimated scf accuracy    <       0.00000020 Ry

     iteration # 17     ecut=     5.00 Ry     beta= 0.70
     Davidson diagonalization with overlap

---- Real-time Memory Report at c_bands before calling an iterative solver
            57 MiB given to the printing process from OS
             0 MiB allocation reported by mallinfo(arena+hblkhd)
           519 MiB available memory on the node where the printing process lives
------------------
     ethr =  1.94E-09,  avg # of iterations =  2.0

     negative rho (up, down):  3.686E-01 0.000E+00

     total cpu time spent up to now is        1.4 secs

     total energy              =      -2.07500943 Ry
     estimated scf accuracy    <       0.00000012 Ry

     iteration # 18     ecut=     5.00 Ry     beta= 0.70
     Davidson diagonalization with overlap

---- Real-time Memory Report at c_bands before calling an iterative solver
            57 MiB given to the printing process from OS
             0 MiB allocation reported by mallinfo(arena+hblkhd)
           519 MiB available memory on the node where the printing process lives
------------------
     ethr =  1.94E-09,  avg # of iterations =  4.0

     negative rho (up, down):  3.686E-01 0.000E+00

     total cpu time spent up to now is        1.5 secs

     total energy              =      -2.07501295 Ry
     estimated scf accuracy    <       0.00000014 Ry

     iteration # 19     ecut=     5.00 Ry     beta= 0.70
     Davidson diagonalization with overlap

---- Real-time Memory Report at c_bands before calling an iterative solver
            57 MiB given to the printing process from OS
             0 MiB allocation reported by mallinfo(arena+hblkhd)
           519 MiB available memory on the node where the printing process lives
------------------
     ethr =  1.94E-09,  avg # of iterations =  4.0

     negative rho (up, down):  3.686E-01 0.000E+00

     total cpu time spent up to now is        1.5 secs

     End of self-consistent calculation

          k =-0.5000-0.5000-0.5000 (  5040 PWs)   bands (ev):

   -10.0300  -1.4008

     occupation numbers 
     1.0000   0.0000

     highest occupied, lowest unoccupied level (ev):   -10.0300   -1.4008

!    total energy              =      -2.07499868 Ry
     estimated scf accuracy    <          6.5E-10 Ry

     The total energy is the sum of the following terms:
     one-electron contribution =      -3.69857880 Ry
     hartree contribution      =       1.96901197 Ry
     xc contribution           =      -1.22746378 Ry
     ewald contribution        =       0.88203194 Ry

     convergence has been achieved in  19 iterations

     Forces acting on atoms (cartesian axes, Ry/au):

     atom    1 type  1   force =    -0.04367793    0.00000000    0.00000000
     atom    2 type  1   force =     0.04367793    0.00000000    0.00000000
     The non-local contrib.  to forces
     atom    1 type  1   force =     0.05603679    0.00000000    0.00000000
     atom    2 type  1   force =    -0.07209652    0.00000000    0.00000000
     The ionic contribution  to forces
     atom    1 type  1   force =    -0.79323501   -0.00000000   -0.00000000
     atom    2 type  1   force =     0.79323501    0.00000000   -0.00000000
     The local contribution  to forces
     atom    1 type  1   force =     0.68777453    0.00000000   -0.00000000
     atom    2 type  1   force =    -0.68349020    0.00000000    0.00000000
     The core correction contribution to forces
     atom    1 type  1   force =     0.00000000    0.00000000    0.00000000
     atom    2 type  1   force =     0.00000000    0.00000000    0.00000000
     The Hubbard contrib.    to forces
     atom    1 type  1   force =     0.00000000    0.00000000    0.00000000
     atom    2 type  1   force =     0.00000000    0.00000000    0.00000000
     The SCF correction term to forces
     atom    1 type  1   force =    -0.00030299   -0.00000000   -0.00000000
     atom    2 type  1   force =    -0.00001910   -0.00000000   -0.00000000

     Total force =     0.061770     Total SCF correction =     0.000304

     BFGS Geometry Optimization
     Energy error            =      0.0E+00 Ry
     Gradient error          =      4.4E-02 Ry/Bohr

     number of scf cycles    =   1
     number of bfgs steps    =   0

     energy             new  =      -2.0749986804 Ry

     new trust radius        =       0.0436779317 bohr
     new conv_thr            =       0.0000000100 Ry


ATOMIC_POSITIONS (angstrom)
H            -0.0231133661        0.0000000000        0.0000000000
H             0.8631133661        0.0000000000        0.0000000000



     Writing config-only to output data dir ./.save/
     NEW-OLD atomic charge density approx. for the potential

     negative rho (up, down):  3.774E-01 0.000E+00

     total cpu time spent up to now is        1.6 secs

     Self-consistent Calculation

     iteration #  1     ecut=     5.00 Ry     beta= 0.70
     Davidson diagonalization with overlap

---- Real-time Memory Report at c_bands before calling an iterative solver
            58 MiB given to the printing process from OS
             0 MiB allocation reported by mallinfo(arena+hblkhd)
           540 MiB available memory on the node where the printing process lives
------------------
     ethr =  1.00E-06,  avg # of iterations =  7.0

     negative rho (up, down):  3.613E-01 0.000E+00

     total cpu time spent up to now is        1.7 secs

     total energy              =      -2.07750888 Ry
     estimated scf accuracy    <       0.00012845 Ry

     iteration #  2     ecut=     5.00 Ry     beta= 0.70
     Davidson diagonalization with overlap

---- Real-time Memory Report at c_bands before calling an iterative solver
            58 MiB given to the printing process from OS
             0 MiB allocation reported by mallinfo(arena+hblkhd)
           529 MiB available memory on the node where the printing process lives
------------------
     ethr =  6.42E-06,  avg # of iterations =  7.0

     negative rho (up, down):  3.561E-01 0.000E+00

     total cpu time spent up to now is        1.8 secs

     total energy              =      -2.07954064 Ry
     estimated scf accuracy    <       0.00000627 Ry

     iteration #  3     ecut=     5.00 Ry     beta= 0.70
     Davidson diagonalization with overlap

---- Real-time Memory Report at c_bands before calling an iterative solver
            58 MiB given to the printing process from OS
             0 MiB allocation reported by mallinfo(arena+hblkhd)
           527 MiB available memory on the node where the printing process lives
------------------
     ethr =  3.14E-07,  avg # of iterations =  4.0

     negative rho (up, down):  3.564E-01 0.000E+00

     total cpu time spent up to now is        1.9 secs

     total energy              =      -2.07945948 Ry
     estimated scf accuracy    <       0.00000309 Ry

     iteration #  4     ecut=     5.00 Ry     beta= 0.70
     Davidson diagonalization with overlap

---- Real-time Memory Report at c_bands before calling an iterative solver
            58 MiB given to the printing process from OS
             0 MiB allocation reported by mallinfo(arena+hblkhd)
           526 MiB available memory on the node where the printing process lives
------------------
     ethr =  1.54E-07,  avg # of iterations =  2.0

     negative rho (up, down):  3.559E-01 0.000E+00

     total cpu time spent up to now is        1.9 secs

     total energy              =      -2.07965583 Ry
     estimated scf accuracy    <       0.00000026 Ry

     iteration #  5     ecut=     5.00 Ry     beta= 0.70
     Davidson diagonalization with overlap

---- Real-time Memory Report at c_bands before calling an iterative solver
            58 MiB given to the printing process from OS
             0 MiB allocation reported by mallinfo(arena+hblkhd)
           525 MiB available memory on the node where the printing process lives
------------------
     ethr =  1.32E-08,  avg # of iterations =  3.0

     negative rho (up, down):  3.558E-01 0.000E+00

     total cpu time spent up to now is        2.0 secs

     total energy              =      -2.07972181 Ry
     estimated scf accuracy    <       0.00000015 Ry

     iteration #  6     ecut=     5.00 Ry     beta= 0.70
     Davidson diagonalization with overlap

---- Real-time Memory Report at c_bands before calling an iterative solver
            58 MiB given to the printing process from OS
             0 MiB allocation reported by mallinfo(arena+hblkhd)
           524 MiB available memory on the node where the printing process lives
------------------
     ethr =  7.54E-09,  avg # of iterations =  3.0

     negative rho (up, down):  3.557E-01 0.000E+00

     total cpu time spent up to now is        2.1 secs

     total energy              =      -2.07973903 Ry
     estimated scf accuracy    <       0.00000005 Ry

     iteration #  7     ecut=     5.00 Ry     beta= 0.70
     Davidson diagonalization with overlap

---- Real-time Memory Report at c_bands before calling an iterative solver
            58 MiB given to the printing process from OS
             0 MiB allocation reported by mallinfo(arena+hblkhd)
           522 MiB available memory on the node where the printing process lives
------------------
     ethr =  2.34E-09,  avg # of iterations =  4.0

     negative rho (up, down):  3.558E-01 0.000E+00

     total cpu time spent up to now is        2.2 secs

     total energy              =      -2.07972116 Ry
     estimated scf accuracy    <       0.00000024 Ry

     iteration #  8     ecut=     5.00 Ry     beta= 0.70
     Davidson diagonalization with overlap

---- Real-time Memory Report at c_bands before calling an iterative solver
            58 MiB given to the printing process from OS
             0 MiB allocation reported by mallinfo(arena+hblkhd)
           521 MiB available memory on the node where the printing process lives
------------------
     ethr =  2.34E-09,  avg # of iterations =  3.0

     negative rho (up, down):  3.558E-01 0.000E+00

     total cpu time spent up to now is        2.2 secs

     total energy              =      -2.07972837 Ry
     estimated scf accuracy    <       0.00000003 Ry

     iteration #  9     ecut=     5.00 Ry     beta= 0.70
     Davidson diagonalization with overlap

---- Real-time Memory Report at c_bands before calling an iterative solver
            58 MiB given to the printing process from OS
             0 MiB allocation reported by mallinfo(arena+hblkhd)
           520 MiB available memory on the node where the printing process lives
------------------
     ethr =  1.47E-09,  avg # of iterations =  3.0

     negative rho (up, down):  3.558E-01 0.000E+00

     total cpu time spent up to now is        2.3 secs

     total energy              =      -2.07972713 Ry
     estimated scf accuracy    <       0.00000002 Ry

     iteration # 10     ecut=     5.00 Ry     beta= 0.70
     Davidson diagonalization with overlap

---- Real-time Memory Report at c_bands before calling an iterative solver
            59 MiB given to the printing process from OS
             0 MiB allocation reported by mallinfo(arena+hblkhd)
           518 MiB available memory on the node where the printing process lives
------------------
     ethr =  7.52E-10,  avg # of iterations =  2.0

     negative rho (up, down):  3.558E-01 0.000E+00

     total cpu time spent up to now is        2.4 secs

     End of self-consistent calculation

          k =-0.5000-0.5000-0.5000 (  5040 PWs)   bands (ev):

    -9.8330  -1.4209

     occupation numbers 
     1.0000   0.0000

     highest occupied, lowest unoccupied level (ev):    -9.8330   -1.4209

!    total energy              =      -2.07970551 Ry
     estimated scf accuracy    <          9.5E-09 Ry

     The total energy is the sum of the following terms:
     one-electron contribution =      -3.61615739 Ry
     hartree contribution      =       1.92812433 Ry
     xc contribution           =      -1.20802858 Ry
     ewald contribution        =       0.81635614 Ry

     convergence has been achieved in  10 iterations

     Forces acting on atoms (cartesian axes, Ry/au):

     atom    1 type  1   force =     0.03274567    0.00000000    0.00000000
     atom    2 type  1   force =    -0.03274567    0.00000000    0.00000000
     The non-local contrib.  to forces
     atom    1 type  1   force =     0.06546041    0.00000000    0.00000000
     atom    2 type  1   force =    -0.08374150    0.00000000    0.00000000
     The ionic contribution  to forces
     atom    1 type  1   force =    -0.71256264   -0.00000000   -0.00000000
     atom    2 type  1   force =     0.71256264    0.00000000   -0.00000000
     The local contribution  to forces
     atom    1 type  1   force =     0.67233965    0.00000000   -0.00000000
     atom    2 type  1   force =    -0.66904204    0.00000000    0.00000000
     The core correction contribution to forces
     atom    1 type  1   force =     0.00000000    0.00000000    0.00000000
     atom    2 type  1   force =     0.00000000    0.00000000    0.00000000
     The Hubbard contrib.    to forces
     atom    1 type  1   force =     0.00000000    0.00000000    0.00000000
     atom    2 type  1   force =     0.00000000    0.00000000    0.00000000
     The SCF correction term to forces
     atom    1 type  1   force =     0.00019582   -0.00000000    0.00000000
     atom    2 type  1   force =     0.00016281   -0.00000000    0.00000000

     Total force =     0.046309     Total SCF correction =     0.000255
     Energy error            =      4.7E-03 Ry
     Gradient error          =      3.3E-02 Ry/Bohr

     number of scf cycles    =   2
     number of bfgs steps    =   1

     energy             old  =      -2.0749986804 Ry
     energy             new  =      -2.0797055103 Ry

     CASE: energy            _new < energy            _old

     new trust radius        =       0.0187149408 bohr
     new conv_thr            =       0.0000000033 Ry


ATOMIC_POSITIONS (angstrom)
H            -0.0132098459        0.0000000000        0.0000000000
H             0.8532098459        0.0000000000        0.0000000000



     Writing config-only to output data dir ./.save/
     NEW-OLD atomic charge density approx. for the potential

     negative rho (up, down):  3.532E-01 0.000E+00

     total cpu time spent up to now is        2.4 secs

     Self-consistent Calculation

     iteration #  1     ecut=     5.00 Ry     beta= 0.70
     Davidson diagonalization with overlap

---- Real-time Memory Report at c_bands before calling an iterative solver
            59 MiB given to the printing process from OS
             0 MiB allocation reported by mallinfo(arena+hblkhd)
           539 MiB available memory on the node where the printing process lives
------------------
     ethr =  1.00E-06,  avg # of iterations =  6.0

     negative rho (up, down):  3.595E-01 0.000E+00

     total cpu time spent up to now is        2.5 secs

     total energy              =      -2.07887216 Ry
     estimated scf accuracy    <       0.00002273 Ry

     iteration #  2     ecut=     5.00 Ry     beta= 0.70
     Davidson diagonalization with overlap

---- Real-time Memory Report at c_bands before calling an iterative solver
            59 MiB given to the printing process from OS
             0 MiB allocation reported by mallinfo(arena+hblkhd)
           528 MiB available memory on the node where the printing process lives
------------------
     ethr =  1.14E-06,  avg # of iterations =  4.0

     negative rho (up, down):  3.597E-01 0.000E+00

     total cpu time spent up to now is        2.6 secs

     total energy              =      -2.07886209 Ry
     estimated scf accuracy    <       0.00001089 Ry

     iteration #  3     ecut=     5.00 Ry     beta= 0.70
     Davidson diagonalization with overlap

---- Real-time Memory Report at c_bands before calling an iterative solver
            59 MiB given to the printing process from OS
             0 MiB allocation reported by mallinfo(arena+hblkhd)
           527 MiB available memory on the node where the printing process lives
------------------
     ethr =  5.45E-07,  avg # of iterations =  8.0

     negative rho (up, down):  3.611E-01 0.000E+00

     total cpu time spent up to now is        2.7 secs

     total energy              =      -2.07854457 Ry
     estimated scf accuracy    <       0.00000199 Ry

     iteration #  4     ecut=     5.00 Ry     beta= 0.70
     Davidson diagonalization with overlap

---- Real-time Memory Report at c_bands before calling an iterative solver
            59 MiB given to the printing process from OS
             0 MiB allocation reported by mallinfo(arena+hblkhd)
           525 MiB available memory on the node where the printing process lives
------------------
     ethr =  9.96E-08,  avg # of iterations =  3.0

     negative rho (up, down):  3.612E-01 0.000E+00

     total cpu time spent up to now is        2.8 secs

     total energy              =      -2.07853354 Ry
     estimated scf accuracy    <       0.00000146 Ry

     iteration #  5     ecut=     5.00 Ry     beta= 0.70
     Davidson diagonalization with overlap

---- Real-time Memory Report at c_bands before calling an iterative solver
            59 MiB given to the printing process from OS
             0 MiB allocation reported by mallinfo(arena+hblkhd)
           524 MiB available memory on the node where the printing process lives
------------------
     ethr =  7.28E-08,  avg # of iterations =  4.0

     negative rho (up, down):  3.612E-01 0.000E+00

     total cpu time spent up to now is        2.9 secs

     total energy              =      -2.07851711 Ry
     estimated scf accuracy    <       0.00001232 Ry

     iteration #  6     ecut=     5.00 Ry     beta= 0.70
     Davidson diagonalization with overlap

---- Real-time Memory Report at c_bands before calling an iterative solver
            59 MiB given to the printing process from OS
             0 MiB allocation reported by mallinfo(arena+hblkhd)
           523 MiB available memory on the node where the printing process lives
------------------
     ethr =  7.28E-08,  avg # of iterations =  4.0

     negative rho (up, down):  3.613E-01 0.000E+00

     total cpu time spent up to now is        2.9 secs

     total energy              =      -2.07859760 Ry
     estimated scf accuracy    <       0.00000096 Ry

     iteration #  7     ecut=     5.00 Ry     beta= 0.70
     Davidson diagonalization with overlap

---- Real-time Memory Report at c_bands before calling an iterative solver
            59 MiB given to the printing process from OS
             0 MiB allocation reported by mallinfo(arena+hblkhd)
           522 MiB available memory on the node where the printing process lives
------------------
     ethr =  4.79E-08,  avg # of iterations =  3.0

     negative rho (up, down):  3.613E-01 0.000E+00

     total cpu time spent up to now is        3.0 secs

     total energy              =      -2.07851455 Ry
     estimated scf accuracy    <       0.00000225 Ry

     iteration #  8     ecut=     5.00 Ry     beta= 0.70
     Davidson diagonalization with overlap

---- Real-time Memory Report at c_bands before calling an iterative solver
            59 MiB given to the printing process from OS
             0 MiB allocation reported by mallinfo(arena+hblkhd)
           520 MiB available memory on the node where the printing process lives
------------------
     ethr =  4.79E-08,  avg # of iterations =  3.0

     negative rho (up, down):  3.613E-01 0.000E+00

     total cpu time spent up to now is        3.1 secs

     total energy              =      -2.07851433 Ry
     estimated scf accuracy    <       0.00000140 Ry

     iteration #  9     ecut=     5.00 Ry     beta= 0.70
     Davidson diagonalization with overlap

---- Real-time Memory Report at c_bands before calling an iterative solver
            59 MiB given to the printing process from OS
             0 MiB allocation reported by mallinfo(arena+hblkhd)
           519 MiB available memory on the node where the printing process lives
------------------
     ethr =  4.79E-08,  avg # of iterations =  2.0

     negative rho (up, down):  3.613E-01 0.000E+00

     total cpu time spent up to now is        3.2 secs

     total energy              =      -2.07852271 Ry
     estimated scf accuracy    <       0.00000100 Ry

     iteration # 10     ecut=     5.00 Ry     beta= 0.70
     Davidson diagonalization with overlap

---- Real-time Memory Report at c_bands before calling an iterative solver
            59 MiB given to the printing process from OS
             0 MiB allocation reported by mallinfo(arena+hblkhd)
           518 MiB available memory on the node where the printing process lives
------------------
     ethr =  4.79E-08,  avg # of iterations =  2.0

     negative rho (up, down):  3.610E-01 0.000E+00

     total cpu time spent up to now is        3.2 secs

     total energy              =      -2.07870797 Ry
     estimated scf accuracy    <       0.00000074 Ry

     iteration # 11     ecut=     5.00 Ry     beta= 0.70
     Davidson diagonalization with overlap

---- Real-time Memory Report at c_bands before calling an iterative solver
            59 MiB given to the printing process from OS
             0 MiB allocation reported by mallinfo(arena+hblkhd)
           518 MiB available memory on the node where the printing process lives
------------------
     ethr =  3.68E-08,  avg # of iterations =  3.0

     negative rho (up, down):  3.611E-01 0.000E+00

     total cpu time spent up to now is        3.3 secs

     total energy              =      -2.07867788 Ry
     estimated scf accuracy    <       0.00000080 Ry

     iteration # 12     ecut=     5.00 Ry     beta= 0.70
     Davidson diagonalization with overlap

---- Real-time Memory Report at c_bands before calling an iterative solver
            59 MiB given to the printing process from OS
             0 MiB allocation reported by mallinfo(arena+hblkhd)
           518 MiB available memory on the node where the printing process lives
------------------
     ethr =  3.68E-08,  avg # of iterations =  3.0

     negative rho (up, down):  3.610E-01 0.000E+00

     total cpu time spent up to now is        3.4 secs

     total energy              =      -2.07867959 Ry
     estimated scf accuracy    <       0.00000312 Ry

     iteration # 13     ecut=     5.00 Ry     beta= 0.70
     Davidson diagonalization with overlap

---- Real-time Memory Report at c_bands before calling an iterative solver
            59 MiB given to the printing process from OS
             0 MiB allocation reported by mallinfo(arena+hblkhd)
           518 MiB available memory on the node where the printing process lives
------------------
     ethr =  3.68E-08,  avg # of iterations =  2.0

     negative rho (up, down):  3.611E-01 0.000E+00

     total cpu time spent up to now is        3.4 secs

     total energy              =      -2.07868434 Ry
     estimated scf accuracy    <       0.00000246 Ry

     iteration # 14     ecut=     5.00 Ry     beta= 0.70
     Davidson diagonalization with overlap

---- Real-time Memory Report at c_bands before calling an iterative solver
            59 MiB given to the printing process from OS
             0 MiB allocation reported by mallinfo(arena+hblkhd)
           518 MiB available memory on the node where the printing process lives
------------------
     ethr =  3.68E-08,  avg # of iterations =  2.0

     negative rho (up, down):  3.611E-01 0.000E+00

     total cpu time spent up to now is        3.5 secs

     total energy              =      -2.07866545 Ry
     estimated scf accuracy    <       0.00000137 Ry

     iteration # 15     ecut=     5.00 Ry     beta= 0.70
     Davidson diagonalization with overlap

---- Real-time Memory Report at c_bands before calling an iterative solver
            59 MiB given to the printing process from OS
             0 MiB allocation reported by mallinfo(arena+hblkhd)
           518 MiB available memory on the node where the printing process lives
------------------
     ethr =  3.68E-08,  avg # of iterations =  3.0

     negative rho (up, down):  3.612E-01 0.000E+00

     total cpu time spent up to now is        3.6 secs

     total energy              =      -2.07859877 Ry
     estimated scf accuracy    <       0.00000062 Ry

     iteration # 16     ecut=     5.00 Ry     beta= 0.70
     Davidson diagonalization with overlap

---- Real-time Memory Report at c_bands before calling an iterative solver
            59 MiB given to the printing process from OS
             0 MiB allocation reported by mallinfo(arena+hblkhd)
           518 MiB available memory on the node where the printing process lives
------------------
     ethr =  3.12E-08,  avg # of iterations =  2.0

     negative rho (up, down):  3.613E-01 0.000E+00

     total cpu time spent up to now is        3.7 secs

     total energy              =      -2.07852576 Ry
     estimated scf accuracy    <       0.00000046 Ry

     iteration # 17     ecut=     5.00 Ry     beta= 0.70
     Davidson diagonalization with overlap

---- Real-time Memory Report at c_bands before calling an iterative solver
            59 MiB given to the printing process from OS
             0 MiB allocation reported by mallinfo(arena+hblkhd)
           518 MiB available memory on the node where the printing process lives
------------------
     ethr =  2.31E-08,  avg # of iterations =  3.0

     negative rho (up, down):  3.612E-01 0.000E+00

     total cpu time spent up to now is        3.7 secs

     total energy              =      -2.07856501 Ry
     estimated scf accuracy    <       0.00000003 Ry

     iteration # 18     ecut=     5.00 Ry     beta= 0.70
     Davidson diagonalization with overlap

---- Real-time Memory Report at c_bands before calling an iterative solver
            59 MiB given to the printing process from OS
             0 MiB allocation reported by mallinfo(arena+hblkhd)
           518 MiB available memory on the node where the printing process lives
------------------
     ethr =  1.73E-09,  avg # of iterations =  4.0

     negative rho (up, down):  3.612E-01 0.000E+00

     total cpu time spent up to now is        3.8 secs

     total energy              =      -2.07857980 Ry
     estimated scf accuracy    <       0.00000010 Ry

     iteration # 19     ecut=     5.00 Ry     beta= 0.70
     Davidson diagonalization with overlap

---- Real-time Memory Report at c_bands before calling an iterative solver
            59 MiB given to the printing process from OS
             0 MiB allocation reported by mallinfo(arena+hblkhd)
           518 MiB available memory on the node where the printing process lives
------------------
     ethr =  1.73E-09,  avg # of iterations =  4.0

     negative rho (up, down):  3.612E-01 0.000E+00

     total cpu time spent up to now is        3.9 secs

     total energy              =      -2.07856964 Ry
     estimated scf accuracy    <       0.00000021 Ry

     iteration # 20     ecut=     5.00 Ry     beta= 0.70
     Davidson diagonalization with overlap

---- Real-time Memory Report at c_bands before calling an iterative solver
            59 MiB given to the printing process from OS
             0 MiB allocation reported by mallinfo(arena+hblkhd)
           518 MiB available memory on the node where the printing process lives
------------------
     ethr =  1.73E-09,  avg # of iterations =  4.0

     negative rho (up, down):  3.613E-01 0.000E+00

     total cpu time spent up to now is        4.0 secs

     total energy              =      -2.07851088 Ry
     estimated scf accuracy    <       0.00000002 Ry

     iteration # 21     ecut=     5.00 Ry     beta= 0.70
     Davidson diagonalization with overlap

---- Real-time Memory Report at c_bands before calling an iterative solver
            59 MiB given to the printing process from OS
             0 MiB allocation reported by mallinfo(arena+hblkhd)
           518 MiB available memory on the node where the printing process lives
------------------
     ethr =  8.83E-10,  avg # of iterations =  4.0

     negative rho (up, down):  3.613E-01 0.000E+00

     total cpu time spent up to now is        4.0 secs

     total energy              =      -2.07850434 Ry
     estimated scf accuracy    <       0.00000026 Ry

     iteration # 22     ecut=     5.00 Ry     beta= 0.70
     Davidson diagonalization with overlap

---- Real-time Memory Report at c_bands before calling an iterative solver
            59 MiB given to the printing process from OS
             0 MiB allocation reported by mallinfo(arena+hblkhd)
           518 MiB available memory on the node where the printing process lives
------------------
     ethr =  8.83E-10,  avg # of iterations =  2.0

     negative rho (up, down):  3.612E-01 0.000E+00

     total cpu time spent up to now is        4.1 secs

     total energy              =      -2.07850604 Ry
     estimated scf accuracy    <       0.00000022 Ry

     iteration # 23     ecut=     5.00 Ry     beta= 0.70
     Davidson diagonalization with overlap

---- Real-time Memory Report at c_bands before calling an iterative solver
            59 MiB given to the printing process from OS
             0 MiB allocation reported by mallinfo(arena+hblkhd)
           518 MiB available memory on the node where the printing process lives
------------------
     ethr =  8.83E-10,  avg # of iterations =  2.0

     negative rho (up, down):  3.612E-01 0.000E+00

     total cpu time spent up to now is        4.2 secs

     total energy              =      -2.07857054 Ry
     estimated scf accuracy    <       0.00000018 Ry

     iteration # 24     ecut=     5.00 Ry     beta= 0.70
     Davidson diagonalization with overlap

---- Real-time Memory Report at c_bands before calling an iterative solver
            59 MiB given to the printing process from OS
             0 MiB allocation reported by mallinfo(arena+hblkhd)
           518 MiB available memory on the node where the printing process lives
------------------
     ethr =  8.83E-10,  avg # of iterations =  4.0

     negative rho (up, down):  3.612E-01 0.000E+00

     total cpu time spent up to now is        4.2 secs

     total energy              =      -2.07850180 Ry
     estimated scf accuracy    <       0.00000003 Ry

     iteration # 25     ecut=     5.00 Ry     beta= 0.70
     Davidson diagonalization with overlap

---- Real-time Memory Report at c_bands before calling an iterative solver
            59 MiB given to the printing process from OS
             0 MiB allocation reported by mallinfo(arena+hblkhd)
           518 MiB available memory on the node where the printing process lives
------------------
     ethr =  8.83E-10,  avg # of iterations =  4.0

     negative rho (up, down):  3.612E-01 0.000E+00

     total cpu time spent up to now is        4.3 secs

     total energy              =      -2.07850537 Ry
     estimated scf accuracy    <       0.00000017 Ry

     iteration # 26     ecut=     5.00 Ry     beta= 0.70
     Davidson diagonalization with overlap

---- Real-time Memory Report at c_bands before calling an iterative solver
            59 MiB given to the printing process from OS
             0 MiB allocation reported by mallinfo(arena+hblkhd)
           518 MiB available memory on the node where the printing process lives
------------------
     ethr =  8.83E-10,  avg # of iterations =  1.0

     negative rho (up, down):  3.612E-01 0.000E+00

     total cpu time spent up to now is        4.4 secs

     total energy              =      -2.07856310 Ry
     estimated scf accuracy    <       0.00000017 Ry

     iteration # 27     ecut=     5.00 Ry     beta= 0.70
     Davidson diagonalization with overlap

---- Real-time Memory Report at c_bands before calling an iterative solver
            59 MiB given to the printing process from OS
             0 MiB allocation reported by mallinfo(arena+hblkhd)
           518 MiB available memory on the node where the printing process lives
------------------
     ethr =  8.83E-10,  avg # of iterations =  4.0

     negative rho (up, down):  3.612E-01 0.000E+00

     total cpu time spent up to now is        4.5 secs

     total energy              =      -2.07856738 Ry
     estimated scf accuracy    <       0.00000006 Ry

     iteration # 28     ecut=     5.00 Ry     beta= 0.70
     Davidson diagonalization with overlap

---- Real-time Memory Report at c_bands before calling an iterative solver
            59 MiB given to the printing process from OS
             0 MiB allocation reported by mallinfo(arena+hblkhd)
           518 MiB available memory on the node where the printing process lives
------------------
     ethr =  8.83E-10,  avg # of iterations =  3.0

     negative rho (up, down):  3.612E-01 0.000E+00

     total cpu time spent up to now is        4.5 secs

     total energy              =      -2.07856174 Ry
     estimated scf accuracy    <       0.00000004 Ry

     iteration # 29     ecut=     5.00 Ry     beta= 0.70
     Davidson diagonalization with overlap

---- Real-time Memory Report at c_bands before calling an iterative solver
            59 MiB given to the printing process from OS
             0 MiB allocation reported by mallinfo(arena+hblkhd)
           518 MiB available memory on the node where the printing process lives
------------------
     ethr =  8.83E-10,  avg # of iterations =  4.0

     negative rho (up, down):  3.613E-01 0.000E+00

     total cpu time spent up to now is        4.6 secs

     total energy              =      -2.07855969 Ry
     estimated scf accuracy    <       0.00000017 Ry

     iteration # 30     ecut=     5.00 Ry     beta= 0.70
     Davidson diagonalization with overlap

---- Real-time Memory Report at c_bands before calling an iterative solver
            59 MiB given to the printing process from OS
             0 MiB allocation reported by mallinfo(arena+hblkhd)
           518 MiB available memory on the node where the printing process lives
------------------
     ethr =  8.83E-10,  avg # of iterations =  2.0

     negative rho (up, down):  3.613E-01 0.000E+00

     total cpu time spent up to now is        4.7 secs

     total energy              =      -2.07855859 Ry
     estimated scf accuracy    <       0.00000013 Ry

     iteration # 31     ecut=     5.00 Ry     beta= 0.70
     Davidson diagonalization with overlap

---- Real-time Memory Report at c_bands before calling an iterative solver
            59 MiB given to the printing process from OS
             0 MiB allocation reported by mallinfo(arena+hblkhd)
           518 MiB available memory on the node where the printing process lives
------------------
     ethr =  8.83E-10,  avg # of iterations =  2.0

     negative rho (up, down):  3.613E-01 0.000E+00

     total cpu time spent up to now is        4.8 secs

     total energy              =      -2.07855515 Ry
     estimated scf accuracy    <       0.00000011 Ry

     iteration # 32     ecut=     5.00 Ry     beta= 0.70
     Davidson diagonalization with overlap

---- Real-time Memory Report at c_bands before calling an iterative solver
            59 MiB given to the printing process from OS
             0 MiB allocation reported by mallinfo(arena+hblkhd)
           518 MiB available memory on the node where the printing process lives
------------------
     ethr =  8.83E-10,  avg # of iterations =  2.0

     negative rho (up, down):  3.613E-01 0.000E+00

     total cpu time spent up to now is        4.8 secs

     total energy              =      -2.07855480 Ry
     estimated scf accuracy    <       0.00000008 Ry

     iteration # 33     ecut=     5.00 Ry     beta= 0.70
     Davidson diagonalization with overlap

---- Real-time Memory Report at c_bands before calling an iterative solver
            59 MiB given to the printing process from OS
             0 MiB allocation reported by mallinfo(arena+hblkhd)
           518 MiB available memory on the node where the printing process lives
------------------
     ethr =  8.83E-10,  avg # of iterations =  1.0

     negative rho (up, down):  3.613E-01 0.000E+00

     total cpu time spent up to now is        4.9 secs

     total energy              =      -2.07848229 Ry
     estimated scf accuracy    <       0.00000008 Ry

     iteration # 34     ecut=     5.00 Ry     beta= 0.70
     Davidson diagonalization with overlap

---- Real-time Memory Report at c_bands before calling an iterative solver
            59 MiB given to the printing process from OS
             0 MiB allocation reported by mallinfo(arena+hblkhd)
           518 MiB available memory on the node where the printing process lives
------------------
     ethr =  8.83E-10,  avg # of iterations =  4.0

     negative rho (up, down):  3.612E-01 0.000E+00

     total cpu time spent up to now is        5.0 secs

     total energy              =      -2.07856402 Ry
     estimated scf accuracy    <       0.00000009 Ry

     iteration # 35     ecut=     5.00 Ry     beta= 0.70
     Davidson diagonalization with overlap

---- Real-time Memory Report at c_bands before calling an iterative solver
            59 MiB given to the printing process from OS
             0 MiB allocation reported by mallinfo(arena+hblkhd)
           518 MiB available memory on the node where the printing process lives
------------------
     ethr =  8.83E-10,  avg # of iterations =  4.0

     negative rho (up, down):  3.612E-01 0.000E+00

     total cpu time spent up to now is        5.0 secs

     total energy              =      -2.07857210 Ry
     estimated scf accuracy    <       0.00000013 Ry

     iteration # 36     ecut=     5.00 Ry     beta= 0.70
     Davidson diagonalization with overlap

---- Real-time Memory Report at c_bands before calling an iterative solver
            59 MiB given to the printing process from OS
             0 MiB allocation reported by mallinfo(arena+hblkhd)
           518 MiB available memory on the node where the printing process lives
------------------
     ethr =  8.83E-10,  avg # of iterations =  4.0

     negative rho (up, down):  3.613E-01 0.000E+00

     total cpu time spent up to now is        5.1 secs

     total energy              =      -2.07849165 Ry
     estimated scf accuracy    <       0.00000056 Ry

     iteration # 37     ecut=     5.00 Ry     beta= 0.70
     Davidson diagonalization with overlap

---- Real-time Memory Report at c_bands before calling an iterative solver
            59 MiB given to the printing process from OS
             0 MiB allocation reported by mallinfo(arena+hblkhd)
           518 MiB available memory on the node where the printing process lives
------------------
     ethr =  8.83E-10,  avg # of iterations =  5.0

     negative rho (up, down):  3.614E-01 0.000E+00

     total cpu time spent up to now is        5.2 secs

     total energy              =      -2.07849368 Ry
     estimated scf accuracy    <       0.00000032 Ry

     iteration # 38     ecut=     5.00 Ry     beta= 0.70
     Davidson diagonalization with overlap

---- Real-time Memory Report at c_bands before calling an iterative solver
            59 MiB given to the printing process from OS
             0 MiB allocation reported by mallinfo(arena+hblkhd)
           518 MiB available memory on the node where the printing process lives
------------------
     ethr =  8.83E-10,  avg # of iterations =  4.0

     negative rho (up, down):  3.613E-01 0.000E+00

     total cpu time spent up to now is        5.3 secs

     total energy              =      -2.07849205 Ry
     estimated scf accuracy    <       0.00000155 Ry

     iteration # 39     ecut=     5.00 Ry     beta= 0.70
     Davidson diagonalization with overlap

---- Real-time Memory Report at c_bands before calling an iterative solver
            59 MiB given to the printing process from OS
             0 MiB allocation reported by mallinfo(arena+hblkhd)
           518 MiB available memory on the node where the printing process lives
------------------
     ethr =  8.83E-10,  avg # of iterations =  4.0

     negative rho (up, down):  3.613E-01 0.000E+00

     total cpu time spent up to now is        5.4 secs

     total energy              =      -2.07857731 Ry
     estimated scf accuracy    <       0.00000106 Ry

     iteration # 40     ecut=     5.00 Ry     beta= 0.70
     Davidson diagonalization with overlap

---- Real-time Memory Report at c_bands before calling an iterative solver
            59 MiB given to the printing process from OS
             0 MiB allocation reported by mallinfo(arena+hblkhd)
           518 MiB available memory on the node where the printing process lives
------------------
     ethr =  8.83E-10,  avg # of iterations =  4.0

     negative rho (up, down):  3.612E-01 0.000E+00

     total cpu time spent up to now is        5.5 secs

     total energy              =      -2.07856699 Ry
     estimated scf accuracy    <       0.00000015 Ry

     iteration # 41     ecut=     5.00 Ry     beta= 0.70
     Davidson diagonalization with overlap

---- Real-time Memory Report at c_bands before calling an iterative solver
            59 MiB given to the printing process from OS
             0 MiB allocation reported by mallinfo(arena+hblkhd)
           518 MiB available memory on the node where the printing process lives
------------------
     ethr =  8.83E-10,  avg # of iterations =  4.0

     negative rho (up, down):  3.613E-01 0.000E+00

     total cpu time spent up to now is        5.5 secs

     total energy              =      -2.07850877 Ry
     estimated scf accuracy    <       0.00000014 Ry

     iteration # 42     ecut=     5.00 Ry     beta= 0.70
     Davidson diagonalization with overlap

---- Real-time Memory Report at c_bands before calling an iterative solver
            59 MiB given to the printing process from OS
             0 MiB allocation reported by mallinfo(arena+hblkhd)
           518 MiB available memory on the node where the printing process lives
------------------
     ethr =  8.83E-10,  avg # of iterations =  4.0

     negative rho (up, down):  3.612E-01 0.000E+00

     total cpu time spent up to now is        5.6 secs

     total energy              =      -2.07852635 Ry
     estimated scf accuracy    <       0.00000012 Ry

     iteration # 43     ecut=     5.00 Ry     beta= 0.70
     Davidson diagonalization with overlap

---- Real-time Memory Report at c_bands before calling an iterative solver
            59 MiB given to the printing process from OS
             0 MiB allocation reported by mallinfo(arena+hblkhd)
           518 MiB available memory on the node where the printing process lives
------------------
     ethr =  8.83E-10,  avg # of iterations =  4.0

     negative rho (up, down):  3.612E-01 0.000E+00

     total cpu time spent up to now is        5.7 secs

     total energy              =      -2.07851964 Ry
     estimated scf accuracy    <       0.00000015 Ry

     iteration # 44     ecut=     5.00 Ry     beta= 0.70
     Davidson diagonalization with overlap

---- Real-time Memory Report at c_bands before calling an iterative solver
            59 MiB given to the printing process from OS
             0 MiB allocation reported by mallinfo(arena+hblkhd)
           518 MiB available memory on the node where the printing process lives
------------------
     ethr =  8.83E-10,  avg # of iterations =  3.0

     negative rho (up, down):  3.612E-01 0.000E+00

     total cpu time spent up to now is        5.7 secs

     total energy              =      -2.07856007 Ry
     estimated scf accuracy    <       0.00000005 Ry

     iteration # 45     ecut=     5.00 Ry     beta= 0.70
     Davidson diagonalization with overlap

---- Real-time Memory Report at c_bands before calling an iterative solver
            59 MiB given to the printing process from OS
             0 MiB allocation reported by mallinfo(arena+hblkhd)
           518 MiB available memory on the node where the printing process lives
------------------
     ethr =  8.83E-10,  avg # of iterations =  4.0

     negative rho (up, down):  3.612E-01 0.000E+00

     total cpu time spent up to now is        5.8 secs

     total energy              =      -2.07856545 Ry
     estimated scf accuracy    <       0.00000005 Ry

     iteration # 46     ecut=     5.00 Ry     beta= 0.70
     Davidson diagonalization with overlap

---- Real-time Memory Report at c_bands before calling an iterative solver
            59 MiB given to the printing process from OS
             0 MiB allocation reported by mallinfo(arena+hblkhd)
           518 MiB available memory on the node where the printing process lives
------------------
     ethr =  8.83E-10,  avg # of iterations =  2.0

     negative rho (up, down):  3.612E-01 0.000E+00

     total cpu time spent up to now is        5.9 secs

     total energy              =      -2.07857328 Ry
     estimated scf accuracy    <       0.00000004 Ry

     iteration # 47     ecut=     5.00 Ry     beta= 0.70
     Davidson diagonalization with overlap

---- Real-time Memory Report at c_bands before calling an iterative solver
            59 MiB given to the printing process from OS
             0 MiB allocation reported by mallinfo(arena+hblkhd)
           518 MiB available memory on the node where the printing process lives
------------------
     ethr =  8.83E-10,  avg # of iterations =  2.0

     negative rho (up, down):  3.612E-01 0.000E+00

     total cpu time spent up to now is        6.0 secs

     total energy              =      -2.07857372 Ry
     estimated scf accuracy    <       0.00000003 Ry

     iteration # 48     ecut=     5.00 Ry     beta= 0.70
     Davidson diagonalization with overlap

---- Real-time Memory Report at c_bands before calling an iterative solver
            59 MiB given to the printing process from OS
             0 MiB allocation reported by mallinfo(arena+hblkhd)
           518 MiB available memory on the node where the printing process lives
------------------
     ethr =  8.83E-10,  avg # of iterations =  2.0

     negative rho (up, down):  3.612E-01 0.000E+00

     total cpu time spent up to now is        6.0 secs

     total energy              =      -2.07857239 Ry
     estimated scf accuracy    <       0.00000002 Ry

     iteration # 49     ecut=     5.00 Ry     beta= 0.70
     Davidson diagonalization with overlap

---- Real-time Memory Report at c_bands before calling an iterative solver
            59 MiB given to the printing process from OS
             0 MiB allocation reported by mallinfo(arena+hblkhd)
           518 MiB available memory on the node where the printing process lives
------------------
     ethr =  8.83E-10,  avg # of iterations =  2.0

     negative rho (up, down):  3.613E-01 0.000E+00

     total cpu time spent up to now is        6.1 secs

     total energy              =      -2.07851036 Ry
     estimated scf accuracy    <       0.00000002 Ry

     iteration # 50     ecut=     5.00 Ry     beta= 0.70
     Davidson diagonalization with overlap

---- Real-time Memory Report at c_bands before calling an iterative solver
            59 MiB given to the printing process from OS
             0 MiB allocation reported by mallinfo(arena+hblkhd)
           518 MiB available memory on the node where the printing process lives
------------------
     ethr =  8.83E-10,  avg # of iterations =  4.0

     negative rho (up, down):  3.612E-01 0.000E+00

     total cpu time spent up to now is        6.2 secs

     total energy              =      -2.07856861 Ry
     estimated scf accuracy    <       0.00000018 Ry

     iteration # 51     ecut=     5.00 Ry     beta= 0.70
     Davidson diagonalization with overlap

---- Real-time Memory Report at c_bands before calling an iterative solver
            59 MiB given to the printing process from OS
             0 MiB allocation reported by mallinfo(arena+hblkhd)
           518 MiB available memory on the node where the printing process lives
------------------
     ethr =  8.83E-10,  avg # of iterations =  4.0

     negative rho (up, down):  3.612E-01 0.000E+00

     total cpu time spent up to now is        6.3 secs

     total energy              =      -2.07857224 Ry
     estimated scf accuracy    <       0.00000002 Ry

     iteration # 52     ecut=     5.00 Ry     beta= 0.70
     Davidson diagonalization with overlap

---- Real-time Memory Report at c_bands before calling an iterative solver
            59 MiB given to the printing process from OS
             0 MiB allocation reported by mallinfo(arena+hblkhd)
           518 MiB available memory on the node where the printing process lives
------------------
     ethr =  7.91E-10,  avg # of iterations =  2.0

     negative rho (up, down):  3.612E-01 0.000E+00

     total cpu time spent up to now is        6.3 secs

     total energy              =      -2.07857183 Ry
     estimated scf accuracy    <       0.00000002 Ry

     iteration # 53     ecut=     5.00 Ry     beta= 0.70
     Davidson diagonalization with overlap

---- Real-time Memory Report at c_bands before calling an iterative solver
            59 MiB given to the printing process from OS
             0 MiB allocation reported by mallinfo(arena+hblkhd)
           518 MiB available memory on the node where the printing process lives
------------------
     ethr =  7.91E-10,  avg # of iterations =  2.0

     negative rho (up, down):  3.612E-01 0.000E+00

     total cpu time spent up to now is        6.4 secs

     total energy              =      -2.07857037 Ry
     estimated scf accuracy    <       0.00000003 Ry

     iteration # 54     ecut=     5.00 Ry     beta= 0.70
     Davidson diagonalization with overlap

---- Real-time Memory Report at c_bands before calling an iterative solver
            59 MiB given to the printing process from OS
             0 MiB allocation reported by mallinfo(arena+hblkhd)
           518 MiB available memory on the node where the printing process lives
------------------
     ethr =  7.91E-10,  avg # of iterations =  3.0

     negative rho (up, down):  3.612E-01 0.000E+00

     total cpu time spent up to now is        6.5 secs

     total energy              =      -2.07857098 Ry
     estimated scf accuracy    <       0.00000016 Ry

     iteration # 55     ecut=     5.00 Ry     beta= 0.70
     Davidson diagonalization with overlap

---- Real-time Memory Report at c_bands before calling an iterative solver
            59 MiB given to the printing process from OS
             0 MiB allocation reported by mallinfo(arena+hblkhd)
           518 MiB available memory on the node where the printing process lives
------------------
     ethr =  7.91E-10,  avg # of iterations =  3.0

     negative rho (up, down):  3.613E-01 0.000E+00

     total cpu time spent up to now is        6.5 secs

     total energy              =      -2.07852513 Ry
     estimated scf accuracy    <       0.00000008 Ry

     iteration # 56     ecut=     5.00 Ry     beta= 0.70
     Davidson diagonalization with overlap

---- Real-time Memory Report at c_bands before calling an iterative solver
            59 MiB given to the printing process from OS
             0 MiB allocation reported by mallinfo(arena+hblkhd)
           518 MiB available memory on the node where the printing process lives
------------------
     ethr =  7.91E-10,  avg # of iterations =  4.0

     negative rho (up, down):  3.613E-01 0.000E+00

     total cpu time spent up to now is        6.6 secs

     total energy              =      -2.07852874 Ry
     estimated scf accuracy    <       0.00000013 Ry

     iteration # 57     ecut=     5.00 Ry     beta= 0.70
     Davidson diagonalization with overlap

---- Real-time Memory Report at c_bands before calling an iterative solver
            59 MiB given to the printing process from OS
             0 MiB allocation reported by mallinfo(arena+hblkhd)
           518 MiB available memory on the node where the printing process lives
------------------
     ethr =  7.91E-10,  avg # of iterations =  2.0

     negative rho (up, down):  3.613E-01 0.000E+00

     total cpu time spent up to now is        6.7 secs

     total energy              =      -2.07849931 Ry
     estimated scf accuracy    <       0.00000007 Ry

     iteration # 58     ecut=     5.00 Ry     beta= 0.70
     Davidson diagonalization with overlap

---- Real-time Memory Report at c_bands before calling an iterative solver
            59 MiB given to the printing process from OS
             0 MiB allocation reported by mallinfo(arena+hblkhd)
           518 MiB available memory on the node where the printing process lives
------------------
     ethr =  7.91E-10,  avg # of iterations =  4.0

     negative rho (up, down):  3.612E-01 0.000E+00

     total cpu time spent up to now is        6.8 secs

     total energy              =      -2.07855787 Ry
     estimated scf accuracy    <       0.00000016 Ry

     iteration # 59     ecut=     5.00 Ry     beta= 0.70
     Davidson diagonalization with overlap

---- Real-time Memory Report at c_bands before calling an iterative solver
            59 MiB given to the printing process from OS
             0 MiB allocation reported by mallinfo(arena+hblkhd)
           518 MiB available memory on the node where the printing process lives
------------------
     ethr =  7.91E-10,  avg # of iterations =  5.0

     negative rho (up, down):  3.612E-01 0.000E+00

     total cpu time spent up to now is        6.8 secs

     total energy              =      -2.07857102 Ry
     estimated scf accuracy    <       0.00000009 Ry

     iteration # 60     ecut=     5.00 Ry     beta= 0.70
     Davidson diagonalization with overlap

---- Real-time Memory Report at c_bands before calling an iterative solver
            59 MiB given to the printing process from OS
             0 MiB allocation reported by mallinfo(arena+hblkhd)
           518 MiB available memory on the node where the printing process lives
------------------
     ethr =  7.91E-10,  avg # of iterations =  2.0

     negative rho (up, down):  3.613E-01 0.000E+00

     total cpu time spent up to now is        6.9 secs

     total energy              =      -2.07857174 Ry
     estimated scf accuracy    <       0.00000005 Ry

     iteration # 61     ecut=     5.00 Ry     beta= 0.70
     Davidson diagonalization with overlap

---- Real-time Memory Report at c_bands before calling an iterative solver
            59 MiB given to the printing process from OS
             0 MiB allocation reported by mallinfo(arena+hblkhd)
           518 MiB available memory on the node where the printing process lives
------------------
     ethr =  7.91E-10,  avg # of iterations =  3.0

     negative rho (up, down):  3.612E-01 0.000E+00

     total cpu time spent up to now is        7.0 secs

     total energy              =      -2.07858316 Ry
     estimated scf accuracy    <       0.00000002 Ry

     iteration # 62     ecut=     5.00 Ry     beta= 0.70
     Davidson diagonalization with overlap

---- Real-time Memory Report at c_bands before calling an iterative solver
            59 MiB given to the printing process from OS
             0 MiB allocation reported by mallinfo(arena+hblkhd)
           518 MiB available memory on the node where the printing process lives
------------------
     ethr =  7.91E-10,  avg # of iterations =  2.0

     negative rho (up, down):  3.613E-01 0.000E+00

     total cpu time spent up to now is        7.0 secs

     total energy              =      -2.07857105 Ry
     estimated scf accuracy    <       0.00000001 Ry

     iteration # 63     ecut=     5.00 Ry     beta= 0.70
     Davidson diagonalization with overlap

---- Real-time Memory Report at c_bands before calling an iterative solver
            59 MiB given to the printing process from OS
             0 MiB allocation reported by mallinfo(arena+hblkhd)
           518 MiB available memory on the node where the printing process lives
------------------
     ethr =  7.19E-10,  avg # of iterations =  3.0

     negative rho (up, down):  3.613E-01 0.000E+00

     total cpu time spent up to now is        7.1 secs

     total energy              =      -2.07851001 Ry
     estimated scf accuracy    <       0.00000002 Ry

     iteration # 64     ecut=     5.00 Ry     beta= 0.70
     Davidson diagonalization with overlap

---- Real-time Memory Report at c_bands before calling an iterative solver
            59 MiB given to the printing process from OS
             0 MiB allocation reported by mallinfo(arena+hblkhd)
           518 MiB available memory on the node where the printing process lives
------------------
     ethr =  7.19E-10,  avg # of iterations =  5.0

     negative rho (up, down):  3.613E-01 0.000E+00

     total cpu time spent up to now is        7.2 secs

     total energy              =      -2.07851382 Ry
     estimated scf accuracy    <       0.00000020 Ry

     iteration # 65     ecut=     5.00 Ry     beta= 0.70
     Davidson diagonalization with overlap

---- Real-time Memory Report at c_bands before calling an iterative solver
            59 MiB given to the printing process from OS
             0 MiB allocation reported by mallinfo(arena+hblkhd)
           518 MiB available memory on the node where the printing process lives
------------------
     ethr =  7.19E-10,  avg # of iterations =  2.0

     negative rho (up, down):  3.613E-01 0.000E+00

     total cpu time spent up to now is        7.3 secs

     total energy              =      -2.07851305 Ry
     estimated scf accuracy    <       0.00000020 Ry

     iteration # 66     ecut=     5.00 Ry     beta= 0.70
     Davidson diagonalization with overlap

---- Real-time Memory Report at c_bands before calling an iterative solver
            59 MiB given to the printing process from OS
             0 MiB allocation reported by mallinfo(arena+hblkhd)
           518 MiB available memory on the node where the printing process lives
------------------
     ethr =  7.19E-10,  avg # of iterations =  3.0

     negative rho (up, down):  3.613E-01 0.000E+00

     total cpu time spent up to now is        7.3 secs

     total energy              =      -2.07857597 Ry
     estimated scf accuracy    <       0.00000016 Ry

     iteration # 67     ecut=     5.00 Ry     beta= 0.70
     Davidson diagonalization with overlap

---- Real-time Memory Report at c_bands before calling an iterative solver
            59 MiB given to the printing process from OS
             0 MiB allocation reported by mallinfo(arena+hblkhd)
           518 MiB available memory on the node where the printing process lives
[...]
------------------
     ethr =  6.36E-10,  avg # of iterations =  5.0

     negative rho (up, down):  3.612E-01 0.000E+00

     total cpu time spent up to now is        8.1 secs

     total energy              =      -2.07853015 Ry
     estimated scf accuracy    <       0.00000011 Ry

     iteration # 77     ecut=     5.00 Ry     beta= 0.70
     Davidson diagonalization with overlap

---- Real-time Memory Report at c_bands before calling an iterative solver
            59 MiB given to the printing process from OS
             0 MiB allocation reported by mallinfo(arena+hblkhd)
           518 MiB available memory on the node where the printing process lives
------------------
     ethr =  6.36E-10,  avg # of iterations =  3.0

     negative rho (up, down):  3.612E-01 0.000E+00

     total cpu time spent up to now is        8.1 secs

     total energy              =      -2.07851010 Ry
     estimated scf accuracy    <       0.00000007 Ry

     iteration # 78     ecut=     5.00 Ry     beta= 0.70
     Davidson diagonalization with overlap

---- Real-time Memory Report at c_bands before calling an iterative solver
            59 MiB given to the printing process from OS
             0 MiB allocation reported by mallinfo(arena+hblkhd)
           518 MiB available memory on the node where the printing process lives
------------------
     ethr =  6.36E-10,  avg # of iterations =  4.0

     negative rho (up, down):  3.612E-01 0.000E+00

     total cpu time spent up to now is        8.2 secs

     total energy              =      -2.07852551 Ry
     estimated scf accuracy    <       0.00000023 Ry

     iteration # 79     ecut=     5.00 Ry     beta= 0.70
     Davidson diagonalization with overlap

---- Real-time Memory Report at c_bands before calling an iterative solver
            59 MiB given to the printing process from OS
             0 MiB allocation reported by mallinfo(arena+hblkhd)
           518 MiB available memory on the node where the printing process lives
------------------
     ethr =  6.36E-10,  avg # of iterations =  4.0

     negative rho (up, down):  3.612E-01 0.000E+00

     total cpu time spent up to now is        8.3 secs

     total energy              =      -2.07853314 Ry
     estimated scf accuracy    <       0.00000008 Ry

     iteration # 80     ecut=     5.00 Ry     beta= 0.70
     Davidson diagonalization with overlap

---- Real-time Memory Report at c_bands before calling an iterative solver
            59 MiB given to the printing process from OS
             0 MiB allocation reported by mallinfo(arena+hblkhd)
           518 MiB available memory on the node where the printing process lives
------------------
     ethr =  6.36E-10,  avg # of iterations =  2.0

     negative rho (up, down):  3.612E-01 0.000E+00

     total cpu time spent up to now is        8.4 secs

     total energy              =      -2.07857661 Ry
     estimated scf accuracy    <       0.00000009 Ry

     iteration # 81     ecut=     5.00 Ry     beta= 0.70
     Davidson diagonalization with overlap

---- Real-time Memory Report at c_bands before calling an iterative solver
            59 MiB given to the printing process from OS
             0 MiB allocation reported by mallinfo(arena+hblkhd)
           518 MiB available memory on the node where the printing process lives
------------------
     ethr =  6.36E-10,  avg # of iterations =  5.0

     negative rho (up, down):  3.612E-01 0.000E+00

     total cpu time spent up to now is        8.4 secs

     total energy              =      -2.07858344 Ry
     estimated scf accuracy    <       0.00000002 Ry

     iteration # 82     ecut=     5.00 Ry     beta= 0.70
     Davidson diagonalization with overlap

---- Real-time Memory Report at c_bands before calling an iterative solver
            59 MiB given to the printing process from OS
             0 MiB allocation reported by mallinfo(arena+hblkhd)
           518 MiB available memory on the node where the printing process lives
------------------
     ethr =  6.36E-10,  avg # of iterations =  1.0

     negative rho (up, down):  3.612E-01 0.000E+00

     total cpu time spent up to now is        8.5 secs

     total energy              =      -2.07858213 Ry
     estimated scf accuracy    <       0.00000002 Ry

     iteration # 83     ecut=     5.00 Ry     beta= 0.70
     Davidson diagonalization with overlap

---- Real-time Memory Report at c_bands before calling an iterative solver
            59 MiB given to the printing process from OS
             0 MiB allocation reported by mallinfo(arena+hblkhd)
           518 MiB available memory on the node where the printing process lives
------------------
     ethr =  6.36E-10,  avg # of iterations =  3.0

     negative rho (up, down):  3.613E-01 0.000E+00

     total cpu time spent up to now is        8.6 secs

     total energy              =      -2.07855139 Ry
     estimated scf accuracy    <       0.00000002 Ry

     iteration # 84     ecut=     5.00 Ry     beta= 0.70
     Davidson diagonalization with overlap

---- Real-time Memory Report at c_bands before calling an iterative solver
            59 MiB given to the printing process from OS
             0 MiB allocation reported by mallinfo(arena+hblkhd)
           518 MiB available memory on the node where the printing process lives
------------------
     ethr =  6.36E-10,  avg # of iterations =  4.0

     negative rho (up, down):  3.613E-01 0.000E+00

     total cpu time spent up to now is        8.7 secs

     total energy              =      -2.07856079 Ry
     estimated scf accuracy    <       0.00000017 Ry

     iteration # 85     ecut=     5.00 Ry     beta= 0.70
     Davidson diagonalization with overlap

---- Real-time Memory Report at c_bands before calling an iterative solver
            59 MiB given to the printing process from OS
             0 MiB allocation reported by mallinfo(arena+hblkhd)
           518 MiB available memory on the node where the printing process lives
------------------
     ethr =  6.36E-10,  avg # of iterations =  3.0

     negative rho (up, down):  3.613E-01 0.000E+00

     total cpu time spent up to now is        8.7 secs

     total energy              =      -2.07856804 Ry
     estimated scf accuracy    <       0.00000007 Ry

     iteration # 86     ecut=     5.00 Ry     beta= 0.70
     Davidson diagonalization with overlap

---- Real-time Memory Report at c_bands before calling an iterative solver
            59 MiB given to the printing process from OS
             0 MiB allocation reported by mallinfo(arena+hblkhd)
           518 MiB available memory on the node where the printing process lives
------------------
     ethr =  6.36E-10,  avg # of iterations =  2.0

     negative rho (up, down):  3.613E-01 0.000E+00

     total cpu time spent up to now is        8.8 secs

     total energy              =      -2.07858203 Ry
     estimated scf accuracy    <       0.00000005 Ry

     iteration # 87     ecut=     5.00 Ry     beta= 0.70
     Davidson diagonalization with overlap

---- Real-time Memory Report at c_bands before calling an iterative solver
            59 MiB given to the printing process from OS
             0 MiB allocation reported by mallinfo(arena+hblkhd)
           518 MiB available memory on the node where the printing process lives
------------------
     ethr =  6.36E-10,  avg # of iterations =  3.0

     negative rho (up, down):  3.612E-01 0.000E+00

     total cpu time spent up to now is        8.9 secs

     total energy              =      -2.07850095 Ry
     estimated scf accuracy    <       0.00000001 Ry

     iteration # 88     ecut=     5.00 Ry     beta= 0.70
     Davidson diagonalization with overlap

---- Real-time Memory Report at c_bands before calling an iterative solver
            59 MiB given to the printing process from OS
             0 MiB allocation reported by mallinfo(arena+hblkhd)
           518 MiB available memory on the node where the printing process lives
------------------
     ethr =  6.36E-10,  avg # of iterations =  4.0

     negative rho (up, down):  3.613E-01 0.000E+00

     total cpu time spent up to now is        8.9 secs

     total energy              =      -2.07856600 Ry
     estimated scf accuracy    <       0.00000018 Ry

     iteration # 89     ecut=     5.00 Ry     beta= 0.70
     Davidson diagonalization with overlap

---- Real-time Memory Report at c_bands before calling an iterative solver
            59 MiB given to the printing process from OS
             0 MiB allocation reported by mallinfo(arena+hblkhd)
           518 MiB available memory on the node where the printing process lives
------------------
     ethr =  6.36E-10,  avg # of iterations =  5.0

     negative rho (up, down):  3.612E-01 0.000E+00

     total cpu time spent up to now is        9.0 secs

     total energy              =      -2.07854380 Ry
     estimated scf accuracy    <       0.00000002 Ry

     iteration # 90     ecut=     5.00 Ry     beta= 0.70
     Davidson diagonalization with overlap

---- Real-time Memory Report at c_bands before calling an iterative solver
            59 MiB given to the printing process from OS
             0 MiB allocation reported by mallinfo(arena+hblkhd)
           518 MiB available memory on the node where the printing process lives
------------------
     ethr =  6.36E-10,  avg # of iterations =  4.0

     negative rho (up, down):  3.612E-01 0.000E+00

     total cpu time spent up to now is        9.1 secs

     total energy              =      -2.07852996 Ry
     estimated scf accuracy    <       0.00000015 Ry

     iteration # 91     ecut=     5.00 Ry     beta= 0.70
     Davidson diagonalization with overlap

---- Real-time Memory Report at c_bands before calling an iterative solver
            59 MiB given to the printing process from OS
             0 MiB allocation reported by mallinfo(arena+hblkhd)
           518 MiB available memory on the node where the printing process lives
------------------
     ethr =  6.36E-10,  avg # of iterations =  4.0

     negative rho (up, down):  3.612E-01 0.000E+00

     total cpu time spent up to now is        9.2 secs

     total energy              =      -2.07856601 Ry
     estimated scf accuracy    <       0.00000009 Ry

     iteration # 92     ecut=     5.00 Ry     beta= 0.70
     Davidson diagonalization with overlap

---- Real-time Memory Report at c_bands before calling an iterative solver
            59 MiB given to the printing process from OS
             0 MiB allocation reported by mallinfo(arena+hblkhd)
           518 MiB available memory on the node where the printing process lives
------------------
     ethr =  6.36E-10,  avg # of iterations =  5.0

     negative rho (up, down):  3.612E-01 0.000E+00

     total cpu time spent up to now is        9.3 secs

     total energy              =      -2.07851355 Ry
     estimated scf accuracy    <       0.00000002 Ry

     iteration # 93     ecut=     5.00 Ry     beta= 0.70
     Davidson diagonalization with overlap

---- Real-time Memory Report at c_bands before calling an iterative solver
            59 MiB given to the printing process from OS
             0 MiB allocation reported by mallinfo(arena+hblkhd)
           518 MiB available memory on the node where the printing process lives
------------------
     ethr =  6.36E-10,  avg # of iterations =  5.0

     negative rho (up, down):  3.612E-01 0.000E+00

     total cpu time spent up to now is        9.3 secs

     total energy              =      -2.07856516 Ry
     estimated scf accuracy    <       0.00000005 Ry

     iteration # 94     ecut=     5.00 Ry     beta= 0.70
     Davidson diagonalization with overlap

---- Real-time Memory Report at c_bands before calling an iterative solver
            59 MiB given to the printing process from OS
             0 MiB allocation reported by mallinfo(arena+hblkhd)
           518 MiB available memory on the node where the printing process lives
------------------
     ethr =  6.36E-10,  avg # of iterations =  5.0

     negative rho (up, down):  3.612E-01 0.000E+00

     total cpu time spent up to now is        9.4 secs

     total energy              =      -2.07857300 Ry
     estimated scf accuracy    <       0.00000002 Ry

     iteration # 95     ecut=     5.00 Ry     beta= 0.70
     Davidson diagonalization with overlap

---- Real-time Memory Report at c_bands before calling an iterative solver
            59 MiB given to the printing process from OS
             0 MiB allocation reported by mallinfo(arena+hblkhd)
           518 MiB available memory on the node where the printing process lives
------------------
     ethr =  6.36E-10,  avg # of iterations =  1.0

     negative rho (up, down):  3.612E-01 0.000E+00

     total cpu time spent up to now is        9.5 secs

     total energy              =      -2.07858267 Ry
     estimated scf accuracy    <       0.00000002 Ry

     iteration # 96     ecut=     5.00 Ry     beta= 0.70
     Davidson diagonalization with overlap

---- Real-time Memory Report at c_bands before calling an iterative solver
            59 MiB given to the printing process from OS
             0 MiB allocation reported by mallinfo(arena+hblkhd)
           518 MiB available memory on the node where the printing process lives
------------------
     ethr =  6.36E-10,  avg # of iterations =  2.0

     negative rho (up, down):  3.612E-01 0.000E+00

     total cpu time spent up to now is        9.6 secs

     total energy              =      -2.07858276 Ry
     estimated scf accuracy    <       0.00000001 Ry

     iteration # 97     ecut=     5.00 Ry     beta= 0.70
     Davidson diagonalization with overlap

---- Real-time Memory Report at c_bands before calling an iterative solver
            59 MiB given to the printing process from OS
             0 MiB allocation reported by mallinfo(arena+hblkhd)
           518 MiB available memory on the node where the printing process lives
------------------
     ethr =  6.36E-10,  avg # of iterations =  1.0

     negative rho (up, down):  3.612E-01 0.000E+00

     total cpu time spent up to now is        9.6 secs

     total energy              =      -2.07858283 Ry
     estimated scf accuracy    <       0.00000001 Ry

     iteration # 98     ecut=     5.00 Ry     beta= 0.70
     Davidson diagonalization with overlap

---- Real-time Memory Report at c_bands before calling an iterative solver
            59 MiB given to the printing process from OS
             0 MiB allocation reported by mallinfo(arena+hblkhd)
           518 MiB available memory on the node where the printing process lives
------------------
     ethr =  6.36E-10,  avg # of iterations =  1.0

     negative rho (up, down):  3.612E-01 0.000E+00

     total cpu time spent up to now is        9.7 secs

     total energy              =      -2.07851403 Ry
     estimated scf accuracy    <       0.00000001 Ry

     iteration # 99     ecut=     5.00 Ry     beta= 0.70
     Davidson diagonalization with overlap

---- Real-time Memory Report at c_bands before calling an iterative solver
            59 MiB given to the printing process from OS
             0 MiB allocation reported by mallinfo(arena+hblkhd)
           518 MiB available memory on the node where the printing process lives
------------------
     ethr =  6.36E-10,  avg # of iterations =  4.0

     negative rho (up, down):  3.612E-01 0.000E+00

     total cpu time spent up to now is        9.8 secs

     total energy              =      -2.07852060 Ry
     estimated scf accuracy    <       0.00000005 Ry

     iteration #100     ecut=     5.00 Ry     beta= 0.70
     Davidson diagonalization with overlap

---- Real-time Memory Report at c_bands before calling an iterative solver
            59 MiB given to the printing process from OS
             0 MiB allocation reported by mallinfo(arena+hblkhd)
           518 MiB available memory on the node where the printing process lives
------------------
     ethr =  6.36E-10,  avg # of iterations =  1.0

     negative rho (up, down):  3.612E-01 0.000E+00

     total cpu time spent up to now is        9.8 secs

     total energy              =      -2.07849955 Ry
     estimated scf accuracy    <       0.00000005 Ry

     End of self-consistent calculation

     convergence NOT achieved after 100 iterations: stopping

     Writing config to output data dir ./.save/
     Message from routine punch:
     wavefunctions written to file

     init_run     :      0.07s CPU      0.08s WALL (       1 calls)
     electrons    :      9.53s CPU      9.59s WALL (       3 calls)
     update_pot   :      0.10s CPU      0.10s WALL (       2 calls)
     forces       :      0.04s CPU      0.04s WALL (       2 calls)

     Called by init_run:
     wfcinit      :      0.01s CPU      0.01s WALL (       1 calls)
     wfcinit:atom :      0.00s CPU      0.00s WALL (       1 calls)
     wfcinit:wfcr :      0.00s CPU      0.00s WALL (       1 calls)
     potinit      :      0.04s CPU      0.05s WALL (       1 calls)
     hinit0       :      0.01s CPU      0.01s WALL (       1 calls)

     Called by electrons:
     c_bands      :      2.06s CPU      2.07s WALL (     129 calls)
     sum_band     :      1.02s CPU      1.03s WALL (     129 calls)
     v_of_rho     :      5.15s CPU      5.18s WALL (     132 calls)
     v_h          :      0.26s CPU      0.26s WALL (     132 calls)
     v_xc         :      4.90s CPU      4.92s WALL (     132 calls)
     newd         :      0.32s CPU      0.33s WALL (     132 calls)
     mix_rho      :      0.98s CPU      0.99s WALL (     129 calls)

     Called by c_bands:
     init_us_2    :      0.03s CPU      0.03s WALL (     259 calls)
     init_us_2:cp :      0.03s CPU      0.03s WALL (     259 calls)
     cegterg      :      2.03s CPU      2.04s WALL (     129 calls)

     Called by sum_band:
     sum_band:wei :      0.00s CPU      0.00s WALL (     129 calls)
     sum_band:loo :      0.29s CPU      0.30s WALL (     129 calls)
     sum_band:buf :      0.00s CPU      0.00s WALL (     129 calls)
     sum_band:ini :      0.02s CPU      0.02s WALL (     129 calls)
     sum_band:cal :      0.00s CPU      0.00s WALL (     129 calls)
     sum_band:bec :      0.00s CPU      0.00s WALL (     129 calls)
     addusdens    :      0.09s CPU      0.09s WALL (     129 calls)
     addusd:skk   :      0.03s CPU      0.03s WALL (     129 calls)
     addusd:dgemm :      0.02s CPU      0.02s WALL (     129 calls)
     addusd:qvan2 :      0.02s CPU      0.02s WALL (     129 calls)

     Called by *egterg:
     cdiaghg      :      0.01s CPU      0.01s WALL (     565 calls)
     cegterg:over :      0.03s CPU      0.03s WALL (     438 calls)
     cegterg:upda :      0.02s CPU      0.02s WALL (     438 calls)
     cegterg:last :      0.04s CPU      0.04s WALL (     351 calls)
     h_psi        :      1.89s CPU      1.90s WALL (     568 calls)
     s_psi        :      0.01s CPU      0.01s WALL (     568 calls)
     g_psi        :      0.01s CPU      0.01s WALL (     438 calls)

     Called by h_psi:
     h_psi:calbec :      0.01s CPU      0.01s WALL (     568 calls)
     vloc_psi     :      1.86s CPU      1.86s WALL (     568 calls)
     add_vuspsi   :      0.01s CPU      0.01s WALL (     568 calls)

     General routines
     calbec       :      0.02s CPU      0.02s WALL (     705 calls)
     fft          :      2.26s CPU      2.27s WALL (    1458 calls)
     ffts         :      0.20s CPU      0.20s WALL (     129 calls)
     fftw         :      1.97s CPU      1.98s WALL (    2032 calls)
     davcio       :      0.00s CPU      0.00s WALL (      19 calls)


     PWSCF        :      9.77s CPU      9.86s WALL


   This run was terminated on:   2:54:54  28Feb2022            

=------------------------------------------------------------------------------=
   JOB DONE.
=------------------------------------------------------------------------------=
