
     Program PWSCF v.7.0 starts on 28Feb2022 at  3: 0:16 

     This program is part of the open-source Quantum ESPRESSO suite
     for quantum simulation of materials; please cite
         "P. Giannozzi et al., J. Phys.:Condens. Matter 21 395502 (2009);
         "P. Giannozzi et al., J. Phys.:Condens. Matter 29 465901 (2017);
         "P. Giannozzi et al., J. Chem. Phys. 152 154105 (2020);
          URL http://www.quantum-espresso.org", 
     in publications or presentations arising from this work. More details at
     http://www.quantum-espresso.org/quote

     Serial version
     560 MiB available memory on the printing compute node when the environment starts

     Waiting for input...
     Reading input from standard input

     Current dimensions of program PWSCF are:
     Max number of different atomic species (ntypx) = 10
     Max number of k-points (npk) =  40000
     Max angular momentum in pseudopotentials (lmaxx) =  4

     File ./.update deleted, as requested

     File ./.bfgs deleted, as requested

    ============================================================
    |  pseudopotential report for atomic species:  1           |
    |        pseudo potential version   7   3   2              |
    ------------------------------------------------------------
    |  hydrogen            PBE                  exchange-corr  |
    |  z =   1.    zv( 1) =   1.    exfact =   5.00000         |
    |  ifpcor =  0           atomic energy =  -0.91772 Ry      |
    |  index    orbital      occupation    energy              |
    |    1        100           1.00       -0.48               |
    |  rinner =  0.5000                                        |
    |    new generation scheme:                                |
    |    nbeta =  1     kkbeta =  271     rcloc =    0.6000    |
    |    ibeta    l     epsilon   rcut                         |
    |      1       0      -0.48   0.80                         |
    ============================================================

     IMPORTANT: XC functional enforced from input :
     Exchange-correlation= BLYP
                           (   1   3   1   3   0   0   0)
     Any further DFT definition will be discarded
     Please, verify this is what you really want


     G-vector sticks info
     --------------------
     sticks:   dense  smooth     PW     G-vecs:    dense   smooth      PW
     Sum        4281    4281   1185               211657   211657   30551

     Using Slab Decomposition



     bravais-lattice index     =            1
     lattice parameter (alat)  =      30.0000  a.u.
     unit-cell volume          =   27000.0000 (a.u.)^3
     number of atoms/cell      =            2
     number of atomic types    =            1
     number of electrons       =         2.00
     number of Kohn-Sham states=            2
     kinetic-energy cutoff     =      15.0000  Ry
     charge density cutoff     =      60.0000  Ry
     scf convergence threshold =      1.0E-08
     mixing beta               =       0.7000
     number of iterations used =            8  plain     mixing
     energy convergence thresh.=      1.0E-04
     force convergence thresh. =      1.0E-03
     Exchange-correlation= BLYP
                           (   1   3   1   3   0   0   0)
     nstep                     =           50


     celldm(1)=  30.000000  celldm(2)=   0.000000  celldm(3)=   0.000000
     celldm(4)=   0.000000  celldm(5)=   0.000000  celldm(6)=   0.000000

     crystal axes: (cart. coord. in units of alat)
               a(1) = (   1.000000   0.000000   0.000000 )  
               a(2) = (   0.000000   1.000000   0.000000 )  
               a(3) = (   0.000000   0.000000   1.000000 )  

     reciprocal axes: (cart. coord. in units 2 pi/alat)
               b(1) = (  1.000000  0.000000  0.000000 )  
               b(2) = (  0.000000  1.000000  0.000000 )  
               b(3) = (  0.000000  0.000000  1.000000 )  


     PseudoPot. # 1 for hy read from file:
     /root/q-e/pseudo/H_US.van
     MD5 check sum: a9a9bfe98ff56cf4de197d71fc46bb44
     Pseudo is Ultrasoft, Zval =  1.0
     Generated by Vanderbilt code, v. 7.3.2
     Using radial grid of  399 points,  1 beta functions with: 
                l(1) =   0
     Q(r) pseudized with  8 coefficients,  rinner =    0.500

     atomic species   valence    mass     pseudopotential
        H              1.00     1.00784     hy( 1.00)

      8 Sym. Ops. (no inversion) found


                                    s                        frac. trans.

      isym =  1     identity                                     

 cryst.   s( 1) = (     1          0          0      )
                  (     0          1          0      )
                  (     0          0          1      )

 cart.    s( 1) = (  1.0000000  0.0000000  0.0000000 )
                  (  0.0000000  1.0000000  0.0000000 )
                  (  0.0000000  0.0000000  1.0000000 )


      isym =  2     180 deg rotation - cart. axis [1,0,0]        

 cryst.   s( 2) = (     1          0          0      )
                  (     0         -1          0      )
                  (     0          0         -1      )

 cart.    s( 2) = (  1.0000000  0.0000000  0.0000000 )
                  (  0.0000000 -1.0000000  0.0000000 )
                  (  0.0000000  0.0000000 -1.0000000 )


      isym =  3      90 deg rotation - cart. axis [-1,0,0]       

 cryst.   s( 3) = (     1          0          0      )
                  (     0          0         -1      )
                  (     0          1          0      )

 cart.    s( 3) = (  1.0000000  0.0000000  0.0000000 )
                  (  0.0000000  0.0000000  1.0000000 )
                  (  0.0000000 -1.0000000  0.0000000 )


      isym =  4      90 deg rotation - cart. axis [1,0,0]        

 cryst.   s( 4) = (     1          0          0      )
                  (     0          0          1      )
                  (     0         -1          0      )

 cart.    s( 4) = (  1.0000000  0.0000000  0.0000000 )
                  (  0.0000000  0.0000000 -1.0000000 )
                  (  0.0000000  1.0000000  0.0000000 )


      isym =  5     inv. 180 deg rotation - cart. axis [0,0,1]   

 cryst.   s( 5) = (     1          0          0      )
                  (     0          1          0      )
                  (     0          0         -1      )

 cart.    s( 5) = (  1.0000000  0.0000000  0.0000000 )
                  (  0.0000000  1.0000000  0.0000000 )
                  (  0.0000000  0.0000000 -1.0000000 )


      isym =  6     inv. 180 deg rotation - cart. axis [0,1,0]   

 cryst.   s( 6) = (     1          0          0      )
                  (     0         -1          0      )
                  (     0          0          1      )

 cart.    s( 6) = (  1.0000000  0.0000000  0.0000000 )
                  (  0.0000000 -1.0000000  0.0000000 )
                  (  0.0000000  0.0000000  1.0000000 )


      isym =  7     inv. 180 deg rotation - cart. axis [0,1,1]   

 cryst.   s( 7) = (     1          0          0      )
                  (     0          0         -1      )
                  (     0         -1          0      )

 cart.    s( 7) = (  1.0000000  0.0000000  0.0000000 )
                  (  0.0000000  0.0000000 -1.0000000 )
                  (  0.0000000 -1.0000000  0.0000000 )


      isym =  8     inv. 180 deg rotation - cart. axis [0,1,-1]  

 cryst.   s( 8) = (     1          0          0      )
                  (     0          0          1      )
                  (     0          1          0      )

 cart.    s( 8) = (  1.0000000  0.0000000  0.0000000 )
                  (  0.0000000  0.0000000  1.0000000 )
                  (  0.0000000  1.0000000  0.0000000 )


     point group C_4v (4mm) 
     there are  5 classes
     the character table:

       E     2C4   C2    2s_v  2s_d 
A_1    1.00  1.00  1.00  1.00  1.00
A_2    1.00  1.00  1.00 -1.00 -1.00
B_1    1.00 -1.00  1.00  1.00 -1.00
B_2    1.00 -1.00  1.00 -1.00  1.00
E      2.00  0.00 -2.00  0.00  0.00

     the symmetry operations in each class and the name of the first element:

     E        1
          identity                                               
     2C4      3    4
           90 deg rotation - cart. axis [-1,0,0]                 
     C2       2
          180 deg rotation - cart. axis [1,0,0]                  
     2s_v     5    6
          inv. 180 deg rotation - cart. axis [0,0,1]             
     2s_d     7    8
          inv. 180 deg rotation - cart. axis [0,1,1]             

   Cartesian axes

     site n.     atom                  positions (alat units)
         1           H   tau(   1) = (   0.0000000   0.0000000   0.0000000  )
         2           H   tau(   2) = (   0.0440936   0.0000000   0.0000000  )

   Crystallographic axes

     site n.     atom                  positions (cryst. coord.)
         1           H   tau(   1) = (  0.0000000  0.0000000  0.0000000  )
         2           H   tau(   2) = (  0.0440936  0.0000000  0.0000000  )

     number of k points=     1
                       cart. coord. in units 2pi/alat
        k(    1) = (  -0.5000000  -0.5000000  -0.5000000), wk =   2.0000000

                       cryst. coord.
        k(    1) = (  -0.5000000  -0.5000000  -0.5000000), wk =   2.0000000

     Dense  grid:   211657 G-vectors     FFT dimensions: (  75,  75,  75)

     Dynamical RAM for                 wfc:       0.81 MB

     Dynamical RAM for     wfc (w. buffer):       0.81 MB

     Dynamical RAM for           str. fact:       3.23 MB

     Dynamical RAM for           local pot:       0.00 MB

     Dynamical RAM for          nlocal pot:       0.81 MB

     Dynamical RAM for                qrad:       0.01 MB

     Dynamical RAM for          rho,v,vnew:      19.34 MB

     Dynamical RAM for               rhoin:       6.45 MB

     Dynamical RAM for            rho*nmix:      51.67 MB

     Dynamical RAM for           G-vectors:      13.73 MB

     Dynamical RAM for          h,s,v(r/c):       0.00 MB

     Dynamical RAM for          <psi|beta>:       0.00 MB

     Dynamical RAM for                 psi:       1.62 MB

     Dynamical RAM for                hpsi:       1.62 MB

     Dynamical RAM for                spsi:       1.62 MB

     Dynamical RAM for      wfcinit/wfcrot:       1.62 MB

     Dynamical RAM for           addusdens:      19.38 MB

     Dynamical RAM for          addusforce:      27.45 MB

     Estimated static dynamical RAM per process >      66.92 MB

     Estimated max dynamical RAM per process >     146.05 MB

     Initial potential from superposition of free atoms

     starting charge       2.0000, renormalised to       2.0000

     negative rho (up, down):  9.774E-02 0.000E+00
     Starting wfcs are    2 randomized atomic wfcs

     total cpu time spent up to now is        0.4 secs

     Self-consistent Calculation

     iteration #  1     ecut=    15.00 Ry     beta= 0.70
     Davidson diagonalization with overlap

---- Real-time Memory Report at c_bands before calling an iterative solver
           124 MiB given to the printing process from OS
             0 MiB allocation reported by mallinfo(arena+hblkhd)
           479 MiB available memory on the node where the printing process lives
------------------
     ethr =  1.00E-02,  avg # of iterations =  5.0

     negative rho (up, down):  1.703E-01 0.000E+00

     total cpu time spent up to now is        0.8 secs

     total energy              =      -2.29246023 Ry
     estimated scf accuracy    <       0.13973411 Ry

     iteration #  2     ecut=    15.00 Ry     beta= 0.70
     Davidson diagonalization with overlap

---- Real-time Memory Report at c_bands before calling an iterative solver
           152 MiB given to the printing process from OS
             0 MiB allocation reported by mallinfo(arena+hblkhd)
           420 MiB available memory on the node where the printing process lives
------------------
     ethr =  6.99E-03,  avg # of iterations =  1.0

     negative rho (up, down):  1.868E-01 0.000E+00

     total cpu time spent up to now is        1.2 secs

     total energy              =      -2.29288836 Ry
     estimated scf accuracy    <       0.00166142 Ry

     iteration #  3     ecut=    15.00 Ry     beta= 0.70
     Davidson diagonalization with overlap

---- Real-time Memory Report at c_bands before calling an iterative solver
           159 MiB given to the printing process from OS
             0 MiB allocation reported by mallinfo(arena+hblkhd)
           414 MiB available memory on the node where the printing process lives
------------------
     ethr =  8.31E-05,  avg # of iterations =  9.0

     negative rho (up, down):  1.874E-01 0.000E+00

     total cpu time spent up to now is        1.6 secs

     total energy              =      -2.29290006 Ry
     estimated scf accuracy    <       0.00001722 Ry

     iteration #  4     ecut=    15.00 Ry     beta= 0.70
     Davidson diagonalization with overlap

---- Real-time Memory Report at c_bands before calling an iterative solver
           165 MiB given to the printing process from OS
             0 MiB allocation reported by mallinfo(arena+hblkhd)
           407 MiB available memory on the node where the printing process lives
------------------
     c_bands:  1 eigenvalues not converged
     ethr =  8.61E-07,  avg # of iterations = 20.0

     negative rho (up, down):  1.881E-01 0.000E+00

     total cpu time spent up to now is        2.3 secs

     total energy              =      -2.29248102 Ry
     estimated scf accuracy    <       0.00000090 Ry

     iteration #  5     ecut=    15.00 Ry     beta= 0.70
     Davidson diagonalization with overlap

---- Real-time Memory Report at c_bands before calling an iterative solver
           172 MiB given to the printing process from OS
             0 MiB allocation reported by mallinfo(arena+hblkhd)
           401 MiB available memory on the node where the printing process lives
------------------
     ethr =  4.52E-08,  avg # of iterations =  3.0

     negative rho (up, down):  1.881E-01 0.000E+00

     total cpu time spent up to now is        2.7 secs

     total energy              =      -2.29250758 Ry
     estimated scf accuracy    <       0.00000047 Ry

     iteration #  6     ecut=    15.00 Ry     beta= 0.70
     Davidson diagonalization with overlap

---- Real-time Memory Report at c_bands before calling an iterative solver
           178 MiB given to the printing process from OS
             0 MiB allocation reported by mallinfo(arena+hblkhd)
           395 MiB available memory on the node where the printing process lives
------------------
     ethr =  2.35E-08,  avg # of iterations =  3.0

     negative rho (up, down):  1.881E-01 0.000E+00

     total cpu time spent up to now is        3.1 secs

     total energy              =      -2.29252718 Ry
     estimated scf accuracy    <       0.00000002 Ry

     iteration #  7     ecut=    15.00 Ry     beta= 0.70
     Davidson diagonalization with overlap

---- Real-time Memory Report at c_bands before calling an iterative solver
           185 MiB given to the printing process from OS
             0 MiB allocation reported by mallinfo(arena+hblkhd)
           388 MiB available memory on the node where the printing process lives
------------------
     ethr =  9.31E-10,  avg # of iterations =  3.0

     negative rho (up, down):  1.880E-01 0.000E+00

     total cpu time spent up to now is        3.5 secs

     total energy              =      -2.29252944 Ry
     estimated scf accuracy    <       0.00000001 Ry

     iteration #  8     ecut=    15.00 Ry     beta= 0.70
     Davidson diagonalization with overlap

---- Real-time Memory Report at c_bands before calling an iterative solver
           191 MiB given to the printing process from OS
             0 MiB allocation reported by mallinfo(arena+hblkhd)
           382 MiB available memory on the node where the printing process lives
------------------
     ethr =  5.20E-10,  avg # of iterations =  4.0

     negative rho (up, down):  1.880E-01 0.000E+00

     total cpu time spent up to now is        3.9 secs

     total energy              =      -2.29253102 Ry
     estimated scf accuracy    <       0.00000002 Ry

     iteration #  9     ecut=    15.00 Ry     beta= 0.70
     Davidson diagonalization with overlap

---- Real-time Memory Report at c_bands before calling an iterative solver
           198 MiB given to the printing process from OS
             0 MiB allocation reported by mallinfo(arena+hblkhd)
           375 MiB available memory on the node where the printing process lives
------------------
     ethr =  5.20E-10,  avg # of iterations =  3.0

     negative rho (up, down):  1.880E-01 0.000E+00

     total cpu time spent up to now is        4.2 secs

     End of self-consistent calculation

          k =-0.5000-0.5000-0.5000 ( 26344 PWs)   bands (ev):

   -10.9256  -1.4532

     occupation numbers 
     1.0000   0.0000

     highest occupied, lowest unoccupied level (ev):   -10.9256   -1.4532

!    total energy              =      -2.29253691 Ry
     estimated scf accuracy    <          1.2E-09 Ry

     The total energy is the sum of the following terms:
     one-electron contribution =      -4.33326120 Ry
     hartree contribution      =       2.32838067 Ry
     xc contribution           =      -1.42155718 Ry
     ewald contribution        =       1.13390079 Ry

     convergence has been achieved in   9 iterations

     Forces acting on atoms (cartesian axes, Ry/au):

     atom    1 type  1   force =    -0.01148927    0.00000000    0.00000000
     atom    2 type  1   force =     0.01148927    0.00000000    0.00000000
     The non-local contrib.  to forces
     atom    1 type  1   force =     0.17543293    0.00000000    0.00000000
     atom    2 type  1   force =    -0.17690917    0.00000000    0.00000000
     The ionic contribution  to forces
     atom    1 type  1   force =    -1.14256072    0.00000000   -0.00000000
     atom    2 type  1   force =     1.14256072   -0.00000000   -0.00000000
     The local contribution  to forces
     atom    1 type  1   force =     0.95538972    0.00000000    0.00000000
     atom    2 type  1   force =    -0.95469439    0.00000000    0.00000000
     The core correction contribution to forces
     atom    1 type  1   force =     0.00000000    0.00000000    0.00000000
     atom    2 type  1   force =     0.00000000    0.00000000    0.00000000
     The Hubbard contrib.    to forces
     atom    1 type  1   force =     0.00000000    0.00000000    0.00000000
     atom    2 type  1   force =     0.00000000    0.00000000    0.00000000
     The SCF correction term to forces
     atom    1 type  1   force =    -0.00014913    0.00000000    0.00000000
     atom    2 type  1   force =     0.00013418    0.00000000    0.00000000

     Total force =     0.016248     Total SCF correction =     0.000201

     BFGS Geometry Optimization
     Energy error            =      0.0E+00 Ry
     Gradient error          =      1.1E-02 Ry/Bohr

     number of scf cycles    =   1
     number of bfgs steps    =   0

     energy             new  =      -2.2925369141 Ry

     new trust radius        =       0.0114892704 bohr
     new conv_thr            =       0.0000000100 Ry


ATOMIC_POSITIONS (angstrom)
H            -0.0060798601        0.0000000000        0.0000000000
H             0.7060798601        0.0000000000        0.0000000000



     Writing config-only to output data dir ./.save/
     NEW-OLD atomic charge density approx. for the potential

     negative rho (up, down):  1.873E-01 0.000E+00

     total cpu time spent up to now is        4.6 secs

     Self-consistent Calculation

     iteration #  1     ecut=    15.00 Ry     beta= 0.70
     Davidson diagonalization with overlap

---- Real-time Memory Report at c_bands before calling an iterative solver
           201 MiB given to the printing process from OS
             0 MiB allocation reported by mallinfo(arena+hblkhd)
           472 MiB available memory on the node where the printing process lives
------------------
     ethr =  1.00E-06,  avg # of iterations = 14.0

     negative rho (up, down):  1.847E-01 0.000E+00

     total cpu time spent up to now is        5.2 secs

     total energy              =      -2.29447434 Ry
     estimated scf accuracy    <       0.00005152 Ry

     iteration #  2     ecut=    15.00 Ry     beta= 0.70
     Davidson diagonalization with overlap

---- Real-time Memory Report at c_bands before calling an iterative solver
           201 MiB given to the printing process from OS
             0 MiB allocation reported by mallinfo(arena+hblkhd)
           415 MiB available memory on the node where the printing process lives
------------------
     ethr =  2.58E-06,  avg # of iterations =  3.0

     negative rho (up, down):  1.842E-01 0.000E+00

     total cpu time spent up to now is        5.6 secs

     total energy              =      -2.29476532 Ry
     estimated scf accuracy    <       0.00000058 Ry

     iteration #  3     ecut=    15.00 Ry     beta= 0.70
     Davidson diagonalization with overlap

---- Real-time Memory Report at c_bands before calling an iterative solver
           201 MiB given to the printing process from OS
             0 MiB allocation reported by mallinfo(arena+hblkhd)
           408 MiB available memory on the node where the printing process lives
------------------
     ethr =  2.88E-08,  avg # of iterations =  3.0

     negative rho (up, down):  1.842E-01 0.000E+00

     total cpu time spent up to now is        5.9 secs

     total energy              =      -2.29481871 Ry
     estimated scf accuracy    <       0.00000008 Ry

     iteration #  4     ecut=    15.00 Ry     beta= 0.70
     Davidson diagonalization with overlap

---- Real-time Memory Report at c_bands before calling an iterative solver
           201 MiB given to the printing process from OS
             0 MiB allocation reported by mallinfo(arena+hblkhd)
           402 MiB available memory on the node where the printing process lives
------------------
     ethr =  4.09E-09,  avg # of iterations =  3.0

     negative rho (up, down):  1.841E-01 0.000E+00

     total cpu time spent up to now is        6.3 secs

     total energy              =      -2.29485803 Ry
     estimated scf accuracy    <       0.00000011 Ry

     iteration #  5     ecut=    15.00 Ry     beta= 0.70
     Davidson diagonalization with overlap

---- Real-time Memory Report at c_bands before calling an iterative solver
           201 MiB given to the printing process from OS
             0 MiB allocation reported by mallinfo(arena+hblkhd)
           395 MiB available memory on the node where the printing process lives
------------------
     ethr =  4.09E-09,  avg # of iterations =  3.0

     negative rho (up, down):  1.841E-01 0.000E+00

     total cpu time spent up to now is        6.7 secs

     total energy              =      -2.29486528 Ry
     estimated scf accuracy    <       0.00000007 Ry

     iteration #  6     ecut=    15.00 Ry     beta= 0.70
     Davidson diagonalization with overlap

---- Real-time Memory Report at c_bands before calling an iterative solver
           201 MiB given to the printing process from OS
             0 MiB allocation reported by mallinfo(arena+hblkhd)
           389 MiB available memory on the node where the printing process lives
------------------
     ethr =  3.67E-09,  avg # of iterations =  3.0

     negative rho (up, down):  1.841E-01 0.000E+00

     total cpu time spent up to now is        7.1 secs

     total energy              =      -2.29486576 Ry
     estimated scf accuracy    <       0.00000007 Ry

     iteration #  7     ecut=    15.00 Ry     beta= 0.70
     Davidson diagonalization with overlap

---- Real-time Memory Report at c_bands before calling an iterative solver
           201 MiB given to the printing process from OS
             0 MiB allocation reported by mallinfo(arena+hblkhd)
           382 MiB available memory on the node where the printing process lives
------------------
     ethr =  3.38E-09,  avg # of iterations =  2.0

     negative rho (up, down):  1.841E-01 0.000E+00

     total cpu time spent up to now is        7.5 secs

     total energy              =      -2.29486404 Ry
     estimated scf accuracy    <       0.00000005 Ry

     iteration #  8     ecut=    15.00 Ry     beta= 0.70
     Davidson diagonalization with overlap

---- Real-time Memory Report at c_bands before calling an iterative solver
           201 MiB given to the printing process from OS
             0 MiB allocation reported by mallinfo(arena+hblkhd)
           376 MiB available memory on the node where the printing process lives
------------------
     ethr =  2.66E-09,  avg # of iterations =  3.0

     negative rho (up, down):  1.841E-01 0.000E+00

     total cpu time spent up to now is        7.9 secs

     total energy              =      -2.29484787 Ry
     estimated scf accuracy    <       0.00000003 Ry

     iteration #  9     ecut=    15.00 Ry     beta= 0.70
     Davidson diagonalization with overlap

---- Real-time Memory Report at c_bands before calling an iterative solver
           202 MiB given to the printing process from OS
             0 MiB allocation reported by mallinfo(arena+hblkhd)
           369 MiB available memory on the node where the printing process lives
------------------
     ethr =  1.64E-09,  avg # of iterations =  3.0

     negative rho (up, down):  1.842E-01 0.000E+00

     total cpu time spent up to now is        8.3 secs

     total energy              =      -2.29483315 Ry
     estimated scf accuracy    <       0.00000001 Ry

     iteration # 10     ecut=    15.00 Ry     beta= 0.70
     Davidson diagonalization with overlap

---- Real-time Memory Report at c_bands before calling an iterative solver
           208 MiB given to the printing process from OS
             0 MiB allocation reported by mallinfo(arena+hblkhd)
           363 MiB available memory on the node where the printing process lives
------------------
     ethr =  6.02E-10,  avg # of iterations =  4.0

     negative rho (up, down):  1.842E-01 0.000E+00

     total cpu time spent up to now is        8.7 secs

     total energy              =      -2.29484503 Ry
     estimated scf accuracy    <       0.00000022 Ry

     iteration # 11     ecut=    15.00 Ry     beta= 0.70
     Davidson diagonalization with overlap

---- Real-time Memory Report at c_bands before calling an iterative solver
           208 MiB given to the printing process from OS
             0 MiB allocation reported by mallinfo(arena+hblkhd)
           363 MiB available memory on the node where the printing process lives
------------------
     ethr =  6.02E-10,  avg # of iterations =  4.0

     negative rho (up, down):  1.842E-01 0.000E+00

     total cpu time spent up to now is        9.1 secs

     End of self-consistent calculation

          k =-0.5000-0.5000-0.5000 ( 26344 PWs)   bands (ev):

   -10.8574  -1.4556

     occupation numbers 
     1.0000   0.0000

     highest occupied, lowest unoccupied level (ev):   -10.8574   -1.4556

!    total energy              =      -2.29483587 Ry
     estimated scf accuracy    <          8.8E-09 Ry

     The total energy is the sum of the following terms:
     one-electron contribution =      -4.30029539 Ry
     hartree contribution      =       2.31063255 Ry
     xc contribution           =      -1.41326796 Ry
     ewald contribution        =       1.10809494 Ry

     convergence has been achieved in  11 iterations

     Forces acting on atoms (cartesian axes, Ry/au):

     atom    1 type  1   force =     0.00289872    0.00000000    0.00000000
     atom    2 type  1   force =    -0.00289872    0.00000000    0.00000000
     The non-local contrib.  to forces
     atom    1 type  1   force =     0.16256413    0.00000000    0.00000000
     atom    2 type  1   force =    -0.16454148    0.00000000    0.00000000
     The ionic contribution  to forces
     atom    1 type  1   force =    -1.10385545   -0.00000000   -0.00000000
     atom    2 type  1   force =     1.10385545    0.00000000   -0.00000000
     The local contribution  to forces
     atom    1 type  1   force =     0.94310893    0.00000000    0.00000000
     atom    2 type  1   force =    -0.94314949    0.00000000    0.00000000
     The core correction contribution to forces
     atom    1 type  1   force =     0.00000000    0.00000000    0.00000000
     atom    2 type  1   force =     0.00000000    0.00000000    0.00000000
     The Hubbard contrib.    to forces
     atom    1 type  1   force =     0.00000000    0.00000000    0.00000000
     atom    2 type  1   force =     0.00000000    0.00000000    0.00000000
     The SCF correction term to forces
     atom    1 type  1   force =     0.00019762   -0.00000000    0.00000000
     atom    2 type  1   force =     0.00005330   -0.00000000    0.00000000

     Total force =     0.004099     Total SCF correction =     0.000205
     Energy error            =      2.3E-03 Ry
     Gradient error          =      2.9E-03 Ry/Bohr

     number of scf cycles    =   2
     number of bfgs steps    =   1

     energy             old  =      -2.2925369141 Ry
     energy             new  =      -2.2948358699 Ry

     CASE: energy            _new < energy            _old

     new trust radius        =       0.0023147197 bohr
     new conv_thr            =       0.0000000003 Ry


ATOMIC_POSITIONS (angstrom)
H            -0.0048549631        0.0000000000        0.0000000000
H             0.7048549631        0.0000000000        0.0000000000



     Writing config-only to output data dir ./.save/
     NEW-OLD atomic charge density approx. for the potential

     negative rho (up, down):  1.843E-01 0.000E+00

     total cpu time spent up to now is        9.5 secs

     Self-consistent Calculation

     iteration #  1     ecut=    15.00 Ry     beta= 0.70
     Davidson diagonalization with overlap

---- Real-time Memory Report at c_bands before calling an iterative solver
           208 MiB given to the printing process from OS
             0 MiB allocation reported by mallinfo(arena+hblkhd)
           471 MiB available memory on the node where the printing process lives
------------------
     ethr =  1.00E-06,  avg # of iterations =  2.0

     Threshold (ethr) on eigenvalues was too large:
     Diagonalizing with lowered threshold

     Davidson diagonalization with overlap

---- Real-time Memory Report at c_bands before calling an iterative solver
           208 MiB given to the printing process from OS
             0 MiB allocation reported by mallinfo(arena+hblkhd)
           460 MiB available memory on the node where the printing process lives
------------------
     ethr =  6.79E-08,  avg # of iterations =  1.0

     negative rho (up, down):  1.847E-01 0.000E+00

     total cpu time spent up to now is       10.0 secs

     total energy              =      -2.29450266 Ry
     estimated scf accuracy    <       0.00000152 Ry

     iteration #  2     ecut=    15.00 Ry     beta= 0.70
     Davidson diagonalization with overlap

---- Real-time Memory Report at c_bands before calling an iterative solver
           208 MiB given to the printing process from OS
             0 MiB allocation reported by mallinfo(arena+hblkhd)
           414 MiB available memory on the node where the printing process lives
------------------
     ethr =  7.58E-08,  avg # of iterations =  3.0

     negative rho (up, down):  1.847E-01 0.000E+00

     total cpu time spent up to now is       10.4 secs

     total energy              =      -2.29450618 Ry
     estimated scf accuracy    <       0.00000016 Ry

     iteration #  3     ecut=    15.00 Ry     beta= 0.70
     Davidson diagonalization with overlap

---- Real-time Memory Report at c_bands before calling an iterative solver
           208 MiB given to the printing process from OS
             0 MiB allocation reported by mallinfo(arena+hblkhd)
           408 MiB available memory on the node where the printing process lives
------------------
     ethr =  8.05E-09,  avg # of iterations =  3.0

     negative rho (up, down):  1.848E-01 0.000E+00

     total cpu time spent up to now is       10.8 secs

     total energy              =      -2.29445391 Ry
     estimated scf accuracy    <       0.00000026 Ry

     iteration #  4     ecut=    15.00 Ry     beta= 0.70
     Davidson diagonalization with overlap

---- Real-time Memory Report at c_bands before calling an iterative solver
           208 MiB given to the printing process from OS
             0 MiB allocation reported by mallinfo(arena+hblkhd)
           401 MiB available memory on the node where the printing process lives
------------------
     ethr =  8.05E-09,  avg # of iterations =  3.0

     negative rho (up, down):  1.848E-01 0.000E+00

     total cpu time spent up to now is       11.2 secs

     total energy              =      -2.29445032 Ry
     estimated scf accuracy    <          3.8E-09 Ry

     iteration #  5     ecut=    15.00 Ry     beta= 0.70
     Davidson diagonalization with overlap

---- Real-time Memory Report at c_bands before calling an iterative solver
           208 MiB given to the printing process from OS
             0 MiB allocation reported by mallinfo(arena+hblkhd)
           395 MiB available memory on the node where the printing process lives
------------------
     ethr =  1.89E-10,  avg # of iterations =  5.0

     negative rho (up, down):  1.848E-01 0.000E+00

     total cpu time spent up to now is       11.6 secs

     total energy              =      -2.29445193 Ry
     estimated scf accuracy    <       0.00000014 Ry

     iteration #  6     ecut=    15.00 Ry     beta= 0.70
     Davidson diagonalization with overlap

---- Real-time Memory Report at c_bands before calling an iterative solver
           208 MiB given to the printing process from OS
             0 MiB allocation reported by mallinfo(arena+hblkhd)
           388 MiB available memory on the node where the printing process lives
------------------
     ethr =  1.89E-10,  avg # of iterations =  4.0

     negative rho (up, down):  1.848E-01 0.000E+00

     total cpu time spent up to now is       12.0 secs

     total energy              =      -2.29441310 Ry
     estimated scf accuracy    <       0.00000021 Ry

     iteration #  7     ecut=    15.00 Ry     beta= 0.70
     Davidson diagonalization with overlap

---- Real-time Memory Report at c_bands before calling an iterative solver
           208 MiB given to the printing process from OS
             0 MiB allocation reported by mallinfo(arena+hblkhd)
           382 MiB available memory on the node where the printing process lives
------------------
     ethr =  1.89E-10,  avg # of iterations =  5.0

     negative rho (up, down):  1.848E-01 0.000E+00

     total cpu time spent up to now is       12.5 secs

     total energy              =      -2.29443446 Ry
     estimated scf accuracy    <       0.00000029 Ry

     iteration #  8     ecut=    15.00 Ry     beta= 0.70
     Davidson diagonalization with overlap

---- Real-time Memory Report at c_bands before calling an iterative solver
           208 MiB given to the printing process from OS
             0 MiB allocation reported by mallinfo(arena+hblkhd)
           375 MiB available memory on the node where the printing process lives
------------------
     ethr =  1.89E-10,  avg # of iterations =  5.0

     negative rho (up, down):  1.848E-01 0.000E+00

     total cpu time spent up to now is       12.9 secs

     total energy              =      -2.29444910 Ry
     estimated scf accuracy    <       0.00000013 Ry

     iteration #  9     ecut=    15.00 Ry     beta= 0.70
     Davidson diagonalization with overlap

---- Real-time Memory Report at c_bands before calling an iterative solver
           208 MiB given to the printing process from OS
             0 MiB allocation reported by mallinfo(arena+hblkhd)
           369 MiB available memory on the node where the printing process lives
------------------
     ethr =  1.89E-10,  avg # of iterations =  3.0

     negative rho (up, down):  1.848E-01 0.000E+00

     total cpu time spent up to now is       13.3 secs

     total energy              =      -2.29445070 Ry
     estimated scf accuracy    <       0.00000009 Ry

     iteration # 10     ecut=    15.00 Ry     beta= 0.70
     Davidson diagonalization with overlap

---- Real-time Memory Report at c_bands before calling an iterative solver
           208 MiB given to the printing process from OS
             0 MiB allocation reported by mallinfo(arena+hblkhd)
           363 MiB available memory on the node where the printing process lives
------------------
     ethr =  1.89E-10,  avg # of iterations =  3.0

     negative rho (up, down):  1.848E-01 0.000E+00

     total cpu time spent up to now is       13.7 secs

     total energy              =      -2.29444964 Ry
     estimated scf accuracy    <       0.00000010 Ry

     iteration # 11     ecut=    15.00 Ry     beta= 0.70
     Davidson diagonalization with overlap

---- Real-time Memory Report at c_bands before calling an iterative solver
           208 MiB given to the printing process from OS
             0 MiB allocation reported by mallinfo(arena+hblkhd)
           362 MiB available memory on the node where the printing process lives
------------------
     ethr =  1.89E-10,  avg # of iterations =  3.0

     negative rho (up, down):  1.848E-01 0.000E+00

     total cpu time spent up to now is       14.1 secs

     total energy              =      -2.29445046 Ry
     estimated scf accuracy    <       0.00000008 Ry

     iteration # 12     ecut=    15.00 Ry     beta= 0.70
     Davidson diagonalization with overlap

---- Real-time Memory Report at c_bands before calling an iterative solver
           208 MiB given to the printing process from OS
             0 MiB allocation reported by mallinfo(arena+hblkhd)
           362 MiB available memory on the node where the printing process lives
------------------
     ethr =  1.89E-10,  avg # of iterations =  3.0

     negative rho (up, down):  1.848E-01 0.000E+00

     total cpu time spent up to now is       14.5 secs

     total energy              =      -2.29444127 Ry
     estimated scf accuracy    <       0.00000010 Ry

     iteration # 13     ecut=    15.00 Ry     beta= 0.70
     Davidson diagonalization with overlap

---- Real-time Memory Report at c_bands before calling an iterative solver
           208 MiB given to the printing process from OS
             0 MiB allocation reported by mallinfo(arena+hblkhd)
           362 MiB available memory on the node where the printing process lives
------------------
     ethr =  1.89E-10,  avg # of iterations =  4.0

     negative rho (up, down):  1.848E-01 0.000E+00

     total cpu time spent up to now is       14.9 secs

     total energy              =      -2.29444733 Ry
     estimated scf accuracy    <       0.00000016 Ry

     iteration # 14     ecut=    15.00 Ry     beta= 0.70
     Davidson diagonalization with overlap

---- Real-time Memory Report at c_bands before calling an iterative solver
           208 MiB given to the printing process from OS
             0 MiB allocation reported by mallinfo(arena+hblkhd)
           362 MiB available memory on the node where the printing process lives
------------------
     ethr =  1.89E-10,  avg # of iterations =  3.0

     negative rho (up, down):  1.848E-01 0.000E+00

     total cpu time spent up to now is       15.3 secs

     total energy              =      -2.29446657 Ry
     estimated scf accuracy    <       0.00000015 Ry

     iteration # 15     ecut=    15.00 Ry     beta= 0.70
     Davidson diagonalization with overlap

---- Real-time Memory Report at c_bands before calling an iterative solver
           208 MiB given to the printing process from OS
             0 MiB allocation reported by mallinfo(arena+hblkhd)
           362 MiB available memory on the node where the printing process lives
------------------
     ethr =  1.89E-10,  avg # of iterations =  4.0

     negative rho (up, down):  1.848E-01 0.000E+00

     total cpu time spent up to now is       15.7 secs

     total energy              =      -2.29445585 Ry
     estimated scf accuracy    <       0.00000036 Ry

     iteration # 16     ecut=    15.00 Ry     beta= 0.70
     Davidson diagonalization with overlap

---- Real-time Memory Report at c_bands before calling an iterative solver
           208 MiB given to the printing process from OS
             0 MiB allocation reported by mallinfo(arena+hblkhd)
           362 MiB available memory on the node where the printing process lives
------------------
     ethr =  1.89E-10,  avg # of iterations =  3.0

     negative rho (up, down):  1.848E-01 0.000E+00

     total cpu time spent up to now is       16.1 secs

     total energy              =      -2.29446574 Ry
     estimated scf accuracy    <       0.00000030 Ry

     iteration # 17     ecut=    15.00 Ry     beta= 0.70
     Davidson diagonalization with overlap

---- Real-time Memory Report at c_bands before calling an iterative solver
           208 MiB given to the printing process from OS
             0 MiB allocation reported by mallinfo(arena+hblkhd)
           362 MiB available memory on the node where the printing process lives
------------------
     ethr =  1.89E-10,  avg # of iterations =  5.0

     negative rho (up, down):  1.848E-01 0.000E+00

     total cpu time spent up to now is       16.6 secs

     total energy              =      -2.29445464 Ry
     estimated scf accuracy    <       0.00000011 Ry

     iteration # 18     ecut=    15.00 Ry     beta= 0.70
     Davidson diagonalization with overlap

---- Real-time Memory Report at c_bands before calling an iterative solver
           208 MiB given to the printing process from OS
             0 MiB allocation reported by mallinfo(arena+hblkhd)
           362 MiB available memory on the node where the printing process lives
------------------
     ethr =  1.89E-10,  avg # of iterations =  4.0

     negative rho (up, down):  1.848E-01 0.000E+00

     total cpu time spent up to now is       17.0 secs

     total energy              =      -2.29444304 Ry
     estimated scf accuracy    <       0.00000004 Ry

     iteration # 19     ecut=    15.00 Ry     beta= 0.70
     Davidson diagonalization with overlap

---- Real-time Memory Report at c_bands before calling an iterative solver
           208 MiB given to the printing process from OS
             0 MiB allocation reported by mallinfo(arena+hblkhd)
           362 MiB available memory on the node where the printing process lives
------------------
     ethr =  1.89E-10,  avg # of iterations =  3.0

     negative rho (up, down):  1.848E-01 0.000E+00

     total cpu time spent up to now is       17.4 secs

     total energy              =      -2.29444382 Ry
     estimated scf accuracy    <          6.6E-09 Ry

     iteration # 20     ecut=    15.00 Ry     beta= 0.70
     Davidson diagonalization with overlap

---- Real-time Memory Report at c_bands before calling an iterative solver
           208 MiB given to the printing process from OS
             0 MiB allocation reported by mallinfo(arena+hblkhd)
           362 MiB available memory on the node where the printing process lives
------------------
     ethr =  1.89E-10,  avg # of iterations =  3.0

     negative rho (up, down):  1.848E-01 0.000E+00

     total cpu time spent up to now is       17.8 secs

     total energy              =      -2.29446196 Ry
     estimated scf accuracy    <          4.1E-09 Ry

     iteration # 21     ecut=    15.00 Ry     beta= 0.70
     Davidson diagonalization with overlap

---- Real-time Memory Report at c_bands before calling an iterative solver
           208 MiB given to the printing process from OS
             0 MiB allocation reported by mallinfo(arena+hblkhd)
           362 MiB available memory on the node where the printing process lives
------------------
     ethr =  1.89E-10,  avg # of iterations =  5.0

     negative rho (up, down):  1.848E-01 0.000E+00

     total cpu time spent up to now is       18.2 secs

     total energy              =      -2.29442110 Ry
     estimated scf accuracy    <       0.00000018 Ry

     iteration # 22     ecut=    15.00 Ry     beta= 0.70
     Davidson diagonalization with overlap

---- Real-time Memory Report at c_bands before calling an iterative solver
           208 MiB given to the printing process from OS
             0 MiB allocation reported by mallinfo(arena+hblkhd)
           362 MiB available memory on the node where the printing process lives
------------------
     ethr =  1.89E-10,  avg # of iterations =  5.0

     negative rho (up, down):  1.848E-01 0.000E+00

     total cpu time spent up to now is       18.7 secs

     total energy              =      -2.29443943 Ry
     estimated scf accuracy    <       0.00000016 Ry

     iteration # 23     ecut=    15.00 Ry     beta= 0.70
     Davidson diagonalization with overlap

---- Real-time Memory Report at c_bands before calling an iterative solver
           208 MiB given to the printing process from OS
             0 MiB allocation reported by mallinfo(arena+hblkhd)
           362 MiB available memory on the node where the printing process lives
------------------
     ethr =  1.89E-10,  avg # of iterations =  3.0

     negative rho (up, down):  1.848E-01 0.000E+00

     total cpu time spent up to now is       19.1 secs

     total energy              =      -2.29443199 Ry
     estimated scf accuracy    <       0.00000011 Ry

     iteration # 24     ecut=    15.00 Ry     beta= 0.70
     Davidson diagonalization with overlap

---- Real-time Memory Report at c_bands before calling an iterative solver
           208 MiB given to the printing process from OS
             0 MiB allocation reported by mallinfo(arena+hblkhd)
           362 MiB available memory on the node where the printing process lives
------------------
     ethr =  1.89E-10,  avg # of iterations =  3.0

     negative rho (up, down):  1.848E-01 0.000E+00

     total cpu time spent up to now is       19.5 secs

     total energy              =      -2.29445054 Ry
     estimated scf accuracy    <       0.00000012 Ry

     iteration # 25     ecut=    15.00 Ry     beta= 0.70
     Davidson diagonalization with overlap

---- Real-time Memory Report at c_bands before calling an iterative solver
           208 MiB given to the printing process from OS
             0 MiB allocation reported by mallinfo(arena+hblkhd)
           362 MiB available memory on the node where the printing process lives
------------------
     ethr =  1.89E-10,  avg # of iterations =  4.0

     negative rho (up, down):  1.848E-01 0.000E+00

     total cpu time spent up to now is       19.9 secs

     total energy              =      -2.29444293 Ry
     estimated scf accuracy    <       0.00000001 Ry

     iteration # 26     ecut=    15.00 Ry     beta= 0.70
     Davidson diagonalization with overlap

---- Real-time Memory Report at c_bands before calling an iterative solver
           208 MiB given to the printing process from OS
             0 MiB allocation reported by mallinfo(arena+hblkhd)
           362 MiB available memory on the node where the printing process lives
------------------
     ethr =  1.89E-10,  avg # of iterations =  3.0

     negative rho (up, down):  1.848E-01 0.000E+00

     total cpu time spent up to now is       20.3 secs

     total energy              =      -2.29444380 Ry
     estimated scf accuracy    <          3.3E-09 Ry

     iteration # 27     ecut=    15.00 Ry     beta= 0.70
     Davidson diagonalization with overlap

---- Real-time Memory Report at c_bands before calling an iterative solver
           208 MiB given to the printing process from OS
             0 MiB allocation reported by mallinfo(arena+hblkhd)
           362 MiB available memory on the node where the printing process lives
------------------
     ethr =  1.67E-10,  avg # of iterations =  3.0

     negative rho (up, down):  1.848E-01 0.000E+00

     total cpu time spent up to now is       20.7 secs

     total energy              =      -2.29444308 Ry
     estimated scf accuracy    <          2.2E-09 Ry

     iteration # 28     ecut=    15.00 Ry     beta= 0.70
     Davidson diagonalization with overlap

---- Real-time Memory Report at c_bands before calling an iterative solver
           208 MiB given to the printing process from OS
             0 MiB allocation reported by mallinfo(arena+hblkhd)
           362 MiB available memory on the node where the printing process lives
------------------
     ethr =  1.08E-10,  avg # of iterations =  3.0

     negative rho (up, down):  1.848E-01 0.000E+00

     total cpu time spent up to now is       21.1 secs

     total energy              =      -2.29442610 Ry
     estimated scf accuracy    <          3.1E-09 Ry

     iteration # 29     ecut=    15.00 Ry     beta= 0.70
     Davidson diagonalization with overlap

---- Real-time Memory Report at c_bands before calling an iterative solver
           208 MiB given to the printing process from OS
             0 MiB allocation reported by mallinfo(arena+hblkhd)
           362 MiB available memory on the node where the printing process lives
------------------
     ethr =  1.08E-10,  avg # of iterations =  5.0

     negative rho (up, down):  1.848E-01 0.000E+00

     total cpu time spent up to now is       21.5 secs

     total energy              =      -2.29443492 Ry
     estimated scf accuracy    <       0.00000004 Ry

     iteration # 30     ecut=    15.00 Ry     beta= 0.70
     Davidson diagonalization with overlap

---- Real-time Memory Report at c_bands before calling an iterative solver
           208 MiB given to the printing process from OS
             0 MiB allocation reported by mallinfo(arena+hblkhd)
           362 MiB available memory on the node where the printing process lives
------------------
     ethr =  1.08E-10,  avg # of iterations =  4.0

     negative rho (up, down):  1.848E-01 0.000E+00

     total cpu time spent up to now is       22.0 secs

     total energy              =      -2.29444158 Ry
     estimated scf accuracy    <          6.0E-09 Ry

     iteration # 31     ecut=    15.00 Ry     beta= 0.70
     Davidson diagonalization with overlap

---- Real-time Memory Report at c_bands before calling an iterative solver
           208 MiB given to the printing process from OS
             0 MiB allocation reported by mallinfo(arena+hblkhd)
           362 MiB available memory on the node where the printing process lives
------------------
     ethr =  1.08E-10,  avg # of iterations =  4.0

     negative rho (up, down):  1.848E-01 0.000E+00

     total cpu time spent up to now is       22.4 secs

     total energy              =      -2.29444747 Ry
     estimated scf accuracy    <       0.00000006 Ry

     iteration # 32     ecut=    15.00 Ry     beta= 0.70
     Davidson diagonalization with overlap

---- Real-time Memory Report at c_bands before calling an iterative solver
           208 MiB given to the printing process from OS
             0 MiB allocation reported by mallinfo(arena+hblkhd)
           362 MiB available memory on the node where the printing process lives
------------------
     ethr =  1.08E-10,  avg # of iterations =  4.0

     negative rho (up, down):  1.848E-01 0.000E+00

     total cpu time spent up to now is       22.8 secs

     total energy              =      -2.29444038 Ry
     estimated scf accuracy    <          5.5E-09 Ry

     iteration # 33     ecut=    15.00 Ry     beta= 0.70
     Davidson diagonalization with overlap

---- Real-time Memory Report at c_bands before calling an iterative solver
           208 MiB given to the printing process from OS
             0 MiB allocation reported by mallinfo(arena+hblkhd)
           362 MiB available memory on the node where the printing process lives
------------------
     ethr =  1.08E-10,  avg # of iterations =  4.0

     negative rho (up, down):  1.848E-01 0.000E+00

     total cpu time spent up to now is       23.2 secs

     total energy              =      -2.29442757 Ry
     estimated scf accuracy    <       0.00000004 Ry

     iteration # 34     ecut=    15.00 Ry     beta= 0.70
     Davidson diagonalization with overlap

---- Real-time Memory Report at c_bands before calling an iterative solver
           208 MiB given to the printing process from OS
             0 MiB allocation reported by mallinfo(arena+hblkhd)
           362 MiB available memory on the node where the printing process lives
------------------
     ethr =  1.08E-10,  avg # of iterations =  4.0

     negative rho (up, down):  1.848E-01 0.000E+00

     total cpu time spent up to now is       23.7 secs

     total energy              =      -2.29443812 Ry
     estimated scf accuracy    <       0.00000001 Ry

     iteration # 35     ecut=    15.00 Ry     beta= 0.70
     Davidson diagonalization with overlap

---- Real-time Memory Report at c_bands before calling an iterative solver
           208 MiB given to the printing process from OS
             0 MiB allocation reported by mallinfo(arena+hblkhd)
           362 MiB available memory on the node where the printing process lives
------------------
     ethr =  1.08E-10,  avg # of iterations =  4.0

     negative rho (up, down):  1.848E-01 0.000E+00

     total cpu time spent up to now is       24.1 secs

     total energy              =      -2.29442405 Ry
     estimated scf accuracy    <       0.00000004 Ry

     iteration # 36     ecut=    15.00 Ry     beta= 0.70
     Davidson diagonalization with overlap

---- Real-time Memory Report at c_bands before calling an iterative solver
           208 MiB given to the printing process from OS
             0 MiB allocation reported by mallinfo(arena+hblkhd)
           362 MiB available memory on the node where the printing process lives
------------------
     ethr =  1.08E-10,  avg # of iterations =  4.0

     negative rho (up, down):  1.848E-01 0.000E+00

     total cpu time spent up to now is       24.5 secs

     total energy              =      -2.29443124 Ry
     estimated scf accuracy    <          1.7E-09 Ry

     iteration # 37     ecut=    15.00 Ry     beta= 0.70
     Davidson diagonalization with overlap

---- Real-time Memory Report at c_bands before calling an iterative solver
           208 MiB given to the printing process from OS
             0 MiB allocation reported by mallinfo(arena+hblkhd)
           362 MiB available memory on the node where the printing process lives
------------------
     ethr =  8.54E-11,  avg # of iterations =  4.0

     negative rho (up, down):  1.848E-01 0.000E+00

     total cpu time spent up to now is       24.9 secs

     total energy              =      -2.29442680 Ry
     estimated scf accuracy    <       0.00000006 Ry

     iteration # 38     ecut=    15.00 Ry     beta= 0.70
     Davidson diagonalization with overlap

---- Real-time Memory Report at c_bands before calling an iterative solver
           208 MiB given to the printing process from OS
             0 MiB allocation reported by mallinfo(arena+hblkhd)
           362 MiB available memory on the node where the printing process lives
------------------
     ethr =  8.54E-11,  avg # of iterations =  4.0

     negative rho (up, down):  1.848E-01 0.000E+00

     total cpu time spent up to now is       25.3 secs

     total energy              =      -2.29444243 Ry
     estimated scf accuracy    <       0.00000003 Ry

     iteration # 39     ecut=    15.00 Ry     beta= 0.70
     Davidson diagonalization with overlap

---- Real-time Memory Report at c_bands before calling an iterative solver
           208 MiB given to the printing process from OS
             0 MiB allocation reported by mallinfo(arena+hblkhd)
           362 MiB available memory on the node where the printing process lives
------------------
     ethr =  8.54E-11,  avg # of iterations =  5.0

     negative rho (up, down):  1.849E-01 0.000E+00

     total cpu time spent up to now is       25.8 secs

     total energy              =      -2.29444316 Ry
     estimated scf accuracy    <          4.7E-09 Ry

     iteration # 40     ecut=    15.00 Ry     beta= 0.70
     Davidson diagonalization with overlap

---- Real-time Memory Report at c_bands before calling an iterative solver
           208 MiB given to the printing process from OS
             0 MiB allocation reported by mallinfo(arena+hblkhd)
           362 MiB available memory on the node where the printing process lives
------------------
     ethr =  8.54E-11,  avg # of iterations =  4.0

     negative rho (up, down):  1.849E-01 0.000E+00

     total cpu time spent up to now is       26.2 secs

     total energy              =      -2.29444545 Ry
     estimated scf accuracy    <          3.3E-09 Ry

     iteration # 41     ecut=    15.00 Ry     beta= 0.70
     Davidson diagonalization with overlap

---- Real-time Memory Report at c_bands before calling an iterative solver
           208 MiB given to the printing process from OS
             0 MiB allocation reported by mallinfo(arena+hblkhd)
           362 MiB available memory on the node where the printing process lives
------------------
     ethr =  8.54E-11,  avg # of iterations =  2.0

     negative rho (up, down):  1.848E-01 0.000E+00

     total cpu time spent up to now is       26.6 secs

     total energy              =      -2.29442626 Ry
     estimated scf accuracy    <          3.2E-09 Ry

     iteration # 42     ecut=    15.00 Ry     beta= 0.70
     Davidson diagonalization with overlap

---- Real-time Memory Report at c_bands before calling an iterative solver
           208 MiB given to the printing process from OS
             0 MiB allocation reported by mallinfo(arena+hblkhd)
           363 MiB available memory on the node where the printing process lives
------------------
     ethr =  8.54E-11,  avg # of iterations =  5.0

     negative rho (up, down):  1.848E-01 0.000E+00

     total cpu time spent up to now is       27.0 secs

     total energy              =      -2.29443915 Ry
     estimated scf accuracy    <       0.00000003 Ry

     iteration # 43     ecut=    15.00 Ry     beta= 0.70
     Davidson diagonalization with overlap

---- Real-time Memory Report at c_bands before calling an iterative solver
           208 MiB given to the printing process from OS
             0 MiB allocation reported by mallinfo(arena+hblkhd)
           363 MiB available memory on the node where the printing process lives
------------------
     ethr =  8.54E-11,  avg # of iterations =  3.0

     negative rho (up, down):  1.848E-01 0.000E+00

     total cpu time spent up to now is       27.4 secs

     total energy              =      -2.29444047 Ry
     estimated scf accuracy    <       0.00000003 Ry

     iteration # 44     ecut=    15.00 Ry     beta= 0.70
     Davidson diagonalization with overlap

---- Real-time Memory Report at c_bands before calling an iterative solver
           208 MiB given to the printing process from OS
             0 MiB allocation reported by mallinfo(arena+hblkhd)
           363 MiB available memory on the node where the printing process lives
------------------
     ethr =  8.54E-11,  avg # of iterations =  4.0

     negative rho (up, down):  1.848E-01 0.000E+00

     total cpu time spent up to now is       27.8 secs

     total energy              =      -2.29444112 Ry
     estimated scf accuracy    <       0.00000002 Ry

     iteration # 45     ecut=    15.00 Ry     beta= 0.70
     Davidson diagonalization with overlap

---- Real-time Memory Report at c_bands before calling an iterative solver
           208 MiB given to the printing process from OS
             0 MiB allocation reported by mallinfo(arena+hblkhd)
           363 MiB available memory on the node where the printing process lives
------------------
     ethr =  8.54E-11,  avg # of iterations =  3.0

     negative rho (up, down):  1.848E-01 0.000E+00

     total cpu time spent up to now is       28.2 secs

     total energy              =      -2.29444056 Ry
     estimated scf accuracy    <       0.00000002 Ry

     iteration # 46     ecut=    15.00 Ry     beta= 0.70
     Davidson diagonalization with overlap

---- Real-time Memory Report at c_bands before calling an iterative solver
           208 MiB given to the printing process from OS
             0 MiB allocation reported by mallinfo(arena+hblkhd)
           363 MiB available memory on the node where the printing process lives
------------------
     ethr =  8.54E-11,  avg # of iterations =  3.0

     negative rho (up, down):  1.848E-01 0.000E+00

     total cpu time spent up to now is       28.6 secs

     total energy              =      -2.29443253 Ry
     estimated scf accuracy    <          7.4E-09 Ry

     iteration # 47     ecut=    15.00 Ry     beta= 0.70
     Davidson diagonalization with overlap

---- Real-time Memory Report at c_bands before calling an iterative solver
           208 MiB given to the printing process from OS
             0 MiB allocation reported by mallinfo(arena+hblkhd)
           363 MiB available memory on the node where the printing process lives
------------------
     ethr =  8.54E-11,  avg # of iterations =  4.0

     negative rho (up, down):  1.848E-01 0.000E+00

     total cpu time spent up to now is       29.0 secs

     total energy              =      -2.29444182 Ry
     estimated scf accuracy    <          3.2E-09 Ry

     iteration # 48     ecut=    15.00 Ry     beta= 0.70
     Davidson diagonalization with overlap

---- Real-time Memory Report at c_bands before calling an iterative solver
           208 MiB given to the printing process from OS
             0 MiB allocation reported by mallinfo(arena+hblkhd)
           363 MiB available memory on the node where the printing process lives
------------------
     ethr =  8.54E-11,  avg # of iterations =  4.0

     negative rho (up, down):  1.849E-01 0.000E+00

     total cpu time spent up to now is       29.4 secs

     total energy              =      -2.29443341 Ry
     estimated scf accuracy    <       0.00000001 Ry

     iteration # 49     ecut=    15.00 Ry     beta= 0.70
     Davidson diagonalization with overlap

---- Real-time Memory Report at c_bands before calling an iterative solver
           208 MiB given to the printing process from OS
             0 MiB allocation reported by mallinfo(arena+hblkhd)
           363 MiB available memory on the node where the printing process lives
------------------
     ethr =  8.54E-11,  avg # of iterations =  4.0

     negative rho (up, down):  1.849E-01 0.000E+00

     total cpu time spent up to now is       29.9 secs

     total energy              =      -2.29444168 Ry
     estimated scf accuracy    <          5.2E-09 Ry

     iteration # 50     ecut=    15.00 Ry     beta= 0.70
     Davidson diagonalization with overlap

---- Real-time Memory Report at c_bands before calling an iterative solver
           208 MiB given to the printing process from OS
             0 MiB allocation reported by mallinfo(arena+hblkhd)
           363 MiB available memory on the node where the printing process lives
------------------
     ethr =  8.54E-11,  avg # of iterations =  4.0

     negative rho (up, down):  1.848E-01 0.000E+00

     total cpu time spent up to now is       30.3 secs

     total energy              =      -2.29443400 Ry
     estimated scf accuracy    <          3.1E-09 Ry

     iteration # 51     ecut=    15.00 Ry     beta= 0.70
     Davidson diagonalization with overlap

---- Real-time Memory Report at c_bands before calling an iterative solver
           208 MiB given to the printing process from OS
             0 MiB allocation reported by mallinfo(arena+hblkhd)
           363 MiB available memory on the node where the printing process lives
------------------
     ethr =  8.54E-11,  avg # of iterations =  4.0

     negative rho (up, down):  1.848E-01 0.000E+00

     total cpu time spent up to now is       30.7 secs

     total energy              =      -2.29444776 Ry
     estimated scf accuracy    <          5.1E-09 Ry

     iteration # 52     ecut=    15.00 Ry     beta= 0.70
     Davidson diagonalization with overlap

---- Real-time Memory Report at c_bands before calling an iterative solver
           208 MiB given to the printing process from OS
             0 MiB allocation reported by mallinfo(arena+hblkhd)
           363 MiB available memory on the node where the printing process lives
------------------
     ethr =  8.54E-11,  avg # of iterations =  3.0

     negative rho (up, down):  1.848E-01 0.000E+00

     total cpu time spent up to now is       31.1 secs

     total energy              =      -2.29449697 Ry
     estimated scf accuracy    <          5.9E-09 Ry

     iteration # 53     ecut=    15.00 Ry     beta= 0.70
     Davidson diagonalization with overlap

---- Real-time Memory Report at c_bands before calling an iterative solver
           208 MiB given to the printing process from OS
             0 MiB allocation reported by mallinfo(arena+hblkhd)
           363 MiB available memory on the node where the printing process lives
------------------
     ethr =  8.54E-11,  avg # of iterations =  4.0

     negative rho (up, down):  1.848E-01 0.000E+00

     total cpu time spent up to now is       31.5 secs

     total energy              =      -2.29449797 Ry
     estimated scf accuracy    <       0.00000002 Ry

     iteration # 54     ecut=    15.00 Ry     beta= 0.70
     Davidson diagonalization with overlap

---- Real-time Memory Report at c_bands before calling an iterative solver
           208 MiB given to the printing process from OS
             0 MiB allocation reported by mallinfo(arena+hblkhd)
           363 MiB available memory on the node where the printing process lives
------------------
     ethr =  8.54E-11,  avg # of iterations =  2.0

     negative rho (up, down):  1.848E-01 0.000E+00

     total cpu time spent up to now is       31.9 secs

     total energy              =      -2.29448072 Ry
     estimated scf accuracy    <       0.00000002 Ry

     iteration # 55     ecut=    15.00 Ry     beta= 0.70
     Davidson diagonalization with overlap

---- Real-time Memory Report at c_bands before calling an iterative solver
           208 MiB given to the printing process from OS
             0 MiB allocation reported by mallinfo(arena+hblkhd)
           363 MiB available memory on the node where the printing process lives
------------------
     ethr =  8.54E-11,  avg # of iterations =  4.0

     negative rho (up, down):  1.848E-01 0.000E+00

     total cpu time spent up to now is       32.3 secs

     total energy              =      -2.29447717 Ry
     estimated scf accuracy    <       0.00000010 Ry

     iteration # 56     ecut=    15.00 Ry     beta= 0.70
     Davidson diagonalization with overlap

---- Real-time Memory Report at c_bands before calling an iterative solver
           208 MiB given to the printing process from OS
             0 MiB allocation reported by mallinfo(arena+hblkhd)
           363 MiB available memory on the node where the printing process lives
------------------
     ethr =  8.54E-11,  avg # of iterations =  4.0

     negative rho (up, down):  1.848E-01 0.000E+00

     total cpu time spent up to now is       32.7 secs

     total energy              =      -2.29446874 Ry
     estimated scf accuracy    <       0.00000001 Ry

     iteration # 57     ecut=    15.00 Ry     beta= 0.70
     Davidson diagonalization with overlap

---- Real-time Memory Report at c_bands before calling an iterative solver
           208 MiB given to the printing process from OS
             0 MiB allocation reported by mallinfo(arena+hblkhd)
           363 MiB available memory on the node where the printing process lives
------------------
     ethr =  8.54E-11,  avg # of iterations =  5.0

     negative rho (up, down):  1.848E-01 0.000E+00

     total cpu time spent up to now is       33.2 secs

     total energy              =      -2.29444512 Ry
     estimated scf accuracy    <       0.00000023 Ry

     iteration # 58     ecut=    15.00 Ry     beta= 0.70
     Davidson diagonalization with overlap

---- Real-time Memory Report at c_bands before calling an iterative solver
           208 MiB given to the printing process from OS
             0 MiB allocation reported by mallinfo(arena+hblkhd)
           363 MiB available memory on the node where the printing process lives
------------------
     ethr =  8.54E-11,  avg # of iterations =  5.0

     negative rho (up, down):  1.848E-01 0.000E+00

     total cpu time spent up to now is       33.6 secs

     total energy              =      -2.29442989 Ry
     estimated scf accuracy    <          2.0E-09 Ry

     iteration # 59     ecut=    15.00 Ry     beta= 0.70
     Davidson diagonalization with overlap

---- Real-time Memory Report at c_bands before calling an iterative solver
           208 MiB given to the printing process from OS
             0 MiB allocation reported by mallinfo(arena+hblkhd)
           363 MiB available memory on the node where the printing process lives
------------------
     ethr =  8.54E-11,  avg # of iterations =  4.0

     negative rho (up, down):  1.848E-01 0.000E+00

     total cpu time spent up to now is       34.0 secs

     total energy              =      -2.29443562 Ry
     estimated scf accuracy    <       0.00000002 Ry

     iteration # 60     ecut=    15.00 Ry     beta= 0.70
     Davidson diagonalization with overlap

---- Real-time Memory Report at c_bands before calling an iterative solver
           208 MiB given to the printing process from OS
             0 MiB allocation reported by mallinfo(arena+hblkhd)
           363 MiB available memory on the node where the printing process lives
------------------
     ethr =  8.54E-11,  avg # of iterations =  3.0

     negative rho (up, down):  1.848E-01 0.000E+00

     total cpu time spent up to now is       34.4 secs

     total energy              =      -2.29442610 Ry
     estimated scf accuracy    <       0.00000002 Ry

     iteration # 61     ecut=    15.00 Ry     beta= 0.70
     Davidson diagonalization with overlap

---- Real-time Memory Report at c_bands before calling an iterative solver
           208 MiB given to the printing process from OS
             0 MiB allocation reported by mallinfo(arena+hblkhd)
           363 MiB available memory on the node where the printing process lives
------------------
     ethr =  8.54E-11,  avg # of iterations =  3.0

     negative rho (up, down):  1.848E-01 0.000E+00

     total cpu time spent up to now is       34.8 secs

     total energy              =      -2.29443034 Ry
     estimated scf accuracy    <       0.00000002 Ry

     iteration # 62     ecut=    15.00 Ry     beta= 0.70
     Davidson diagonalization with overlap

---- Real-time Memory Report at c_bands before calling an iterative solver
           208 MiB given to the printing process from OS
             0 MiB allocation reported by mallinfo(arena+hblkhd)
           363 MiB available memory on the node where the printing process lives
------------------
     ethr =  8.54E-11,  avg # of iterations =  4.0

     negative rho (up, down):  1.848E-01 0.000E+00

     total cpu time spent up to now is       35.2 secs

     total energy              =      -2.29442334 Ry
     estimated scf accuracy    <       0.00000001 Ry

     iteration # 63     ecut=    15.00 Ry     beta= 0.70
     Davidson diagonalization with overlap

---- Real-time Memory Report at c_bands before calling an iterative solver
           208 MiB given to the printing process from OS
             0 MiB allocation reported by mallinfo(arena+hblkhd)
           363 MiB available memory on the node where the printing process lives
------------------
     ethr =  8.54E-11,  avg # of iterations =  4.0

     negative rho (up, down):  1.848E-01 0.000E+00

     total cpu time spent up to now is       35.7 secs

     total energy              =      -2.29444645 Ry
     estimated scf accuracy    <       0.00000003 Ry

     iteration # 64     ecut=    15.00 Ry     beta= 0.70
     Davidson diagonalization with overlap

---- Real-time Memory Report at c_bands before calling an iterative solver
           208 MiB given to the printing process from OS
             0 MiB allocation reported by mallinfo(arena+hblkhd)
           363 MiB available memory on the node where the printing process lives
------------------
     ethr =  8.54E-11,  avg # of iterations =  4.0

     negative rho (up, down):  1.849E-01 0.000E+00

     total cpu time spent up to now is       36.1 secs

     total energy              =      -2.29441957 Ry
     estimated scf accuracy    <          9.5E-09 Ry

     iteration # 65     ecut=    15.00 Ry     beta= 0.70
     Davidson diagonalization with overlap

---- Real-time Memory Report at c_bands before calling an iterative solver
           208 MiB given to the printing process from OS
             0 MiB allocation reported by mallinfo(arena+hblkhd)
           363 MiB available memory on the node where the printing process lives
------------------
     ethr =  8.54E-11,  avg # of iterations =  4.0

     negative rho (up, down):  1.848E-01 0.000E+00

     total cpu time spent up to now is       36.5 secs

     total energy              =      -2.29443529 Ry
     estimated scf accuracy    <          9.0E-09 Ry

     iteration # 66     ecut=    15.00 Ry     beta= 0.70
     Davidson diagonalization with overlap

---- Real-time Memory Report at c_bands before calling an iterative solver
           208 MiB given to the printing process from OS
             0 MiB allocation reported by mallinfo(arena+hblkhd)
           363 MiB available memory on the node where the printing process lives
------------------
     ethr =  8.54E-11,  avg # of iterations =  4.0

     negative rho (up, down):  1.848E-01 0.000E+00

     total cpu time spent up to now is       36.9 secs

     total energy              =      -2.29444670 Ry
     estimated scf accuracy    <       0.00000001 Ry

     iteration # 67     ecut=    15.00 Ry     beta= 0.70
     Davidson diagonalization with overlap

---- Real-time Memory Report at c_bands before calling an iterative solver
           208 MiB given to the printing process from OS
             0 MiB allocation reported by mallinfo(arena+hblkhd)
           362 MiB available memory on the node where the printing process lives
------------------
     ethr =  8.54E-11,  avg # of iterations =  4.0

     negative rho (up, down):  1.849E-01 0.000E+00

     total cpu time spent up to now is       37.3 secs

     total energy              =      -2.29443240 Ry
     estimated scf accuracy    <          6.0E-09 Ry

     iteration # 68     ecut=    15.00 Ry     beta= 0.70
     Davidson diagonalization with overlap

---- Real-time Memory Report at c_bands before calling an iterative solver
           208 MiB given to the printing process from OS
             0 MiB allocation reported by mallinfo(arena+hblkhd)
           362 MiB available memory on the node where the printing process lives
------------------
     ethr =  8.54E-11,  avg # of iterations =  4.0

     negative rho (up, down):  1.848E-01 0.000E+00

     total cpu time spent up to now is       37.8 secs

     total energy              =      -2.29444591 Ry
     estimated scf accuracy    <          5.2E-09 Ry

     iteration # 69     ecut=    15.00 Ry     beta= 0.70
     Davidson diagonalization with overlap

---- Real-time Memory Report at c_bands before calling an iterative solver
           208 MiB given to the printing process from OS
             0 MiB allocation reported by mallinfo(arena+hblkhd)
           362 MiB available memory on the node where the printing process lives
------------------
     ethr =  8.54E-11,  avg # of iterations =  5.0

     negative rho (up, down):  1.848E-01 0.000E+00

     total cpu time spent up to now is       38.2 secs

     total energy              =      -2.29449868 Ry
     estimated scf accuracy    <          7.3E-09 Ry

     iteration # 70     ecut=    15.00 Ry     beta= 0.70
     Davidson diagonalization with overlap

---- Real-time Memory Report at c_bands before calling an iterative solver
           208 MiB given to the printing process from OS
             0 MiB allocation reported by mallinfo(arena+hblkhd)
           362 MiB available memory on the node where the printing process lives
------------------
     ethr =  8.54E-11,  avg # of iterations =  5.0

     negative rho (up, down):  1.848E-01 0.000E+00

     total cpu time spent up to now is       38.6 secs

     total energy              =      -2.29441473 Ry
     estimated scf accuracy    <       0.00000029 Ry

     iteration # 71     ecut=    15.00 Ry     beta= 0.70
     Davidson diagonalization with overlap

---- Real-time Memory Report at c_bands before calling an iterative solver
           208 MiB given to the printing process from OS
             0 MiB allocation reported by mallinfo(arena+hblkhd)
           362 MiB available memory on the node where the printing process lives
------------------
     ethr =  8.54E-11,  avg # of iterations =  5.0

     negative rho (up, down):  1.848E-01 0.000E+00

     total cpu time spent up to now is       39.1 secs

     total energy              =      -2.29443662 Ry
     estimated scf accuracy    <       0.00000003 Ry

     iteration # 72     ecut=    15.00 Ry     beta= 0.70
     Davidson diagonalization with overlap

---- Real-time Memory Report at c_bands before calling an iterative solver
           208 MiB given to the printing process from OS
             0 MiB allocation reported by mallinfo(arena+hblkhd)
           362 MiB available memory on the node where the printing process lives
------------------
     ethr =  8.54E-11,  avg # of iterations =  4.0

     negative rho (up, down):  1.848E-01 0.000E+00

     total cpu time spent up to now is       39.5 secs

     total energy              =      -2.29441546 Ry
     estimated scf accuracy    <       0.00000002 Ry

     iteration # 73     ecut=    15.00 Ry     beta= 0.70
     Davidson diagonalization with overlap

---- Real-time Memory Report at c_bands before calling an iterative solver
           208 MiB given to the printing process from OS
             0 MiB allocation reported by mallinfo(arena+hblkhd)
           362 MiB available memory on the node where the printing process lives
------------------
     ethr =  8.54E-11,  avg # of iterations =  4.0

     negative rho (up, down):  1.848E-01 0.000E+00

     total cpu time spent up to now is       39.9 secs

     total energy              =      -2.29443516 Ry
     estimated scf accuracy    <       0.00000005 Ry

     iteration # 74     ecut=    15.00 Ry     beta= 0.70
     Davidson diagonalization with overlap

---- Real-time Memory Report at c_bands before calling an iterative solver
           208 MiB given to the printing process from OS
             0 MiB allocation reported by mallinfo(arena+hblkhd)
           362 MiB available memory on the node where the printing process lives
------------------
     ethr =  8.54E-11,  avg # of iterations =  3.0

     negative rho (up, down):  1.848E-01 0.000E+00

     total cpu time spent up to now is       40.4 secs

     total energy              =      -2.29442046 Ry
     estimated scf accuracy    <       0.00000007 Ry

     iteration # 75     ecut=    15.00 Ry     beta= 0.70
     Davidson diagonalization with overlap

---- Real-time Memory Report at c_bands before calling an iterative solver
           208 MiB given to the printing process from OS
             0 MiB allocation reported by mallinfo(arena+hblkhd)
           362 MiB available memory on the node where the printing process lives
------------------
[...]
------------------
     ethr =  8.54E-11,  avg # of iterations =  5.0

     negative rho (up, down):  1.848E-01 0.000E+00

     total cpu time spent up to now is       41.2 secs

     total energy              =      -2.29443537 Ry
     estimated scf accuracy    <       0.00000008 Ry

     iteration # 77     ecut=    15.00 Ry     beta= 0.70
     Davidson diagonalization with overlap

---- Real-time Memory Report at c_bands before calling an iterative solver
           208 MiB given to the printing process from OS
             0 MiB allocation reported by mallinfo(arena+hblkhd)
           362 MiB available memory on the node where the printing process lives
------------------
     ethr =  8.54E-11,  avg # of iterations =  4.0

     negative rho (up, down):  1.848E-01 0.000E+00

     total cpu time spent up to now is       41.7 secs

     total energy              =      -2.29444834 Ry
     estimated scf accuracy    <       0.00000005 Ry

     iteration # 78     ecut=    15.00 Ry     beta= 0.70
     Davidson diagonalization with overlap

---- Real-time Memory Report at c_bands before calling an iterative solver
           208 MiB given to the printing process from OS
             0 MiB allocation reported by mallinfo(arena+hblkhd)
           362 MiB available memory on the node where the printing process lives
------------------
     ethr =  8.54E-11,  avg # of iterations =  4.0

     negative rho (up, down):  1.848E-01 0.000E+00

     total cpu time spent up to now is       42.1 secs

     total energy              =      -2.29445040 Ry
     estimated scf accuracy    <       0.00000001 Ry

     iteration # 79     ecut=    15.00 Ry     beta= 0.70
     Davidson diagonalization with overlap

---- Real-time Memory Report at c_bands before calling an iterative solver
           208 MiB given to the printing process from OS
             0 MiB allocation reported by mallinfo(arena+hblkhd)
           362 MiB available memory on the node where the printing process lives
------------------
     ethr =  8.54E-11,  avg # of iterations =  4.0

     negative rho (up, down):  1.848E-01 0.000E+00

     total cpu time spent up to now is       42.5 secs

     total energy              =      -2.29442489 Ry
     estimated scf accuracy    <          3.2E-09 Ry

     iteration # 80     ecut=    15.00 Ry     beta= 0.70
     Davidson diagonalization with overlap

---- Real-time Memory Report at c_bands before calling an iterative solver
           208 MiB given to the printing process from OS
             0 MiB allocation reported by mallinfo(arena+hblkhd)
           362 MiB available memory on the node where the printing process lives
------------------
     ethr =  8.54E-11,  avg # of iterations =  4.0

     negative rho (up, down):  1.848E-01 0.000E+00

     total cpu time spent up to now is       42.9 secs

     total energy              =      -2.29445259 Ry
     estimated scf accuracy    <          9.0E-09 Ry

     iteration # 81     ecut=    15.00 Ry     beta= 0.70
     Davidson diagonalization with overlap

---- Real-time Memory Report at c_bands before calling an iterative solver
           208 MiB given to the printing process from OS
             0 MiB allocation reported by mallinfo(arena+hblkhd)
           362 MiB available memory on the node where the printing process lives
------------------
     ethr =  8.54E-11,  avg # of iterations =  4.0

     negative rho (up, down):  1.848E-01 0.000E+00

     total cpu time spent up to now is       43.3 secs

     total energy              =      -2.29444724 Ry
     estimated scf accuracy    <       0.00000002 Ry

     iteration # 82     ecut=    15.00 Ry     beta= 0.70
     Davidson diagonalization with overlap

---- Real-time Memory Report at c_bands before calling an iterative solver
           208 MiB given to the printing process from OS
             0 MiB allocation reported by mallinfo(arena+hblkhd)
           362 MiB available memory on the node where the printing process lives
------------------
     ethr =  8.54E-11,  avg # of iterations =  4.0

     negative rho (up, down):  1.848E-01 0.000E+00

     total cpu time spent up to now is       43.8 secs

     total energy              =      -2.29443158 Ry
     estimated scf accuracy    <       0.00000012 Ry

     iteration # 83     ecut=    15.00 Ry     beta= 0.70
     Davidson diagonalization with overlap

---- Real-time Memory Report at c_bands before calling an iterative solver
           208 MiB given to the printing process from OS
             0 MiB allocation reported by mallinfo(arena+hblkhd)
           362 MiB available memory on the node where the printing process lives
------------------
     ethr =  8.54E-11,  avg # of iterations =  4.0

     negative rho (up, down):  1.848E-01 0.000E+00

     total cpu time spent up to now is       44.2 secs

     total energy              =      -2.29443215 Ry
     estimated scf accuracy    <          8.7E-09 Ry

     iteration # 84     ecut=    15.00 Ry     beta= 0.70
     Davidson diagonalization with overlap

---- Real-time Memory Report at c_bands before calling an iterative solver
           208 MiB given to the printing process from OS
             0 MiB allocation reported by mallinfo(arena+hblkhd)
           362 MiB available memory on the node where the printing process lives
------------------
     ethr =  8.54E-11,  avg # of iterations =  4.0

     negative rho (up, down):  1.848E-01 0.000E+00

     total cpu time spent up to now is       44.6 secs

     total energy              =      -2.29442309 Ry
     estimated scf accuracy    <       0.00000002 Ry

     iteration # 85     ecut=    15.00 Ry     beta= 0.70
     Davidson diagonalization with overlap

---- Real-time Memory Report at c_bands before calling an iterative solver
           208 MiB given to the printing process from OS
             0 MiB allocation reported by mallinfo(arena+hblkhd)
           362 MiB available memory on the node where the printing process lives
------------------
     ethr =  8.54E-11,  avg # of iterations =  4.0

     negative rho (up, down):  1.848E-01 0.000E+00

     total cpu time spent up to now is       45.0 secs

     total energy              =      -2.29442130 Ry
     estimated scf accuracy    <          1.8E-09 Ry

     iteration # 86     ecut=    15.00 Ry     beta= 0.70
     Davidson diagonalization with overlap

---- Real-time Memory Report at c_bands before calling an iterative solver
           208 MiB given to the printing process from OS
             0 MiB allocation reported by mallinfo(arena+hblkhd)
           362 MiB available memory on the node where the printing process lives
------------------
     ethr =  8.54E-11,  avg # of iterations =  5.0

     negative rho (up, down):  1.848E-01 0.000E+00

     total cpu time spent up to now is       45.4 secs

     total energy              =      -2.29442155 Ry
     estimated scf accuracy    <       0.00000009 Ry

     iteration # 87     ecut=    15.00 Ry     beta= 0.70
     Davidson diagonalization with overlap

---- Real-time Memory Report at c_bands before calling an iterative solver
           208 MiB given to the printing process from OS
             0 MiB allocation reported by mallinfo(arena+hblkhd)
           362 MiB available memory on the node where the printing process lives
------------------
     ethr =  8.54E-11,  avg # of iterations =  4.0

     negative rho (up, down):  1.849E-01 0.000E+00

     total cpu time spent up to now is       45.9 secs

     total energy              =      -2.29443718 Ry
     estimated scf accuracy    <       0.00000006 Ry

     iteration # 88     ecut=    15.00 Ry     beta= 0.70
     Davidson diagonalization with overlap

---- Real-time Memory Report at c_bands before calling an iterative solver
           208 MiB given to the printing process from OS
             0 MiB allocation reported by mallinfo(arena+hblkhd)
           362 MiB available memory on the node where the printing process lives
------------------
     ethr =  8.54E-11,  avg # of iterations =  5.0

     negative rho (up, down):  1.849E-01 0.000E+00

     total cpu time spent up to now is       46.3 secs

     total energy              =      -2.29443029 Ry
     estimated scf accuracy    <       0.00000001 Ry

     iteration # 89     ecut=    15.00 Ry     beta= 0.70
     Davidson diagonalization with overlap

---- Real-time Memory Report at c_bands before calling an iterative solver
           208 MiB given to the printing process from OS
             0 MiB allocation reported by mallinfo(arena+hblkhd)
           362 MiB available memory on the node where the printing process lives
------------------
     ethr =  8.54E-11,  avg # of iterations =  4.0

     negative rho (up, down):  1.848E-01 0.000E+00

     total cpu time spent up to now is       46.7 secs

     total energy              =      -2.29443524 Ry
     estimated scf accuracy    <       0.00000003 Ry

     iteration # 90     ecut=    15.00 Ry     beta= 0.70
     Davidson diagonalization with overlap

---- Real-time Memory Report at c_bands before calling an iterative solver
           208 MiB given to the printing process from OS
             0 MiB allocation reported by mallinfo(arena+hblkhd)
           362 MiB available memory on the node where the printing process lives
------------------
     ethr =  8.54E-11,  avg # of iterations =  4.0

     negative rho (up, down):  1.849E-01 0.000E+00

     total cpu time spent up to now is       47.1 secs

     total energy              =      -2.29441340 Ry
     estimated scf accuracy    <       0.00000002 Ry

     iteration # 91     ecut=    15.00 Ry     beta= 0.70
     Davidson diagonalization with overlap

---- Real-time Memory Report at c_bands before calling an iterative solver
           208 MiB given to the printing process from OS
             0 MiB allocation reported by mallinfo(arena+hblkhd)
           363 MiB available memory on the node where the printing process lives
------------------
     ethr =  8.54E-11,  avg # of iterations =  5.0

     negative rho (up, down):  1.848E-01 0.000E+00

     total cpu time spent up to now is       47.6 secs

     total energy              =      -2.29442118 Ry
     estimated scf accuracy    <       0.00000007 Ry

     iteration # 92     ecut=    15.00 Ry     beta= 0.70
     Davidson diagonalization with overlap

---- Real-time Memory Report at c_bands before calling an iterative solver
           208 MiB given to the printing process from OS
             0 MiB allocation reported by mallinfo(arena+hblkhd)
           363 MiB available memory on the node where the printing process lives
------------------
     ethr =  8.54E-11,  avg # of iterations =  5.0

     negative rho (up, down):  1.848E-01 0.000E+00

     total cpu time spent up to now is       48.0 secs

     total energy              =      -2.29441460 Ry
     estimated scf accuracy    <       0.00000002 Ry

     iteration # 93     ecut=    15.00 Ry     beta= 0.70
     Davidson diagonalization with overlap

---- Real-time Memory Report at c_bands before calling an iterative solver
           208 MiB given to the printing process from OS
             0 MiB allocation reported by mallinfo(arena+hblkhd)
           363 MiB available memory on the node where the printing process lives
------------------
     ethr =  8.54E-11,  avg # of iterations =  5.0

     negative rho (up, down):  1.848E-01 0.000E+00

     total cpu time spent up to now is       48.4 secs

     total energy              =      -2.29444879 Ry
     estimated scf accuracy    <       0.00000008 Ry

     iteration # 94     ecut=    15.00 Ry     beta= 0.70
     Davidson diagonalization with overlap

---- Real-time Memory Report at c_bands before calling an iterative solver
           208 MiB given to the printing process from OS
             0 MiB allocation reported by mallinfo(arena+hblkhd)
           363 MiB available memory on the node where the printing process lives
------------------
     ethr =  8.54E-11,  avg # of iterations =  5.0

     negative rho (up, down):  1.848E-01 0.000E+00

     total cpu time spent up to now is       48.8 secs

     total energy              =      -2.29443457 Ry
     estimated scf accuracy    <          4.4E-09 Ry

     iteration # 95     ecut=    15.00 Ry     beta= 0.70
     Davidson diagonalization with overlap

---- Real-time Memory Report at c_bands before calling an iterative solver
           208 MiB given to the printing process from OS
             0 MiB allocation reported by mallinfo(arena+hblkhd)
           363 MiB available memory on the node where the printing process lives
------------------
     ethr =  8.54E-11,  avg # of iterations =  4.0

     negative rho (up, down):  1.848E-01 0.000E+00

     total cpu time spent up to now is       49.3 secs

     total energy              =      -2.29446172 Ry
     estimated scf accuracy    <       0.00000003 Ry

     iteration # 96     ecut=    15.00 Ry     beta= 0.70
     Davidson diagonalization with overlap

---- Real-time Memory Report at c_bands before calling an iterative solver
           208 MiB given to the printing process from OS
             0 MiB allocation reported by mallinfo(arena+hblkhd)
           363 MiB available memory on the node where the printing process lives
------------------
     ethr =  8.54E-11,  avg # of iterations =  5.0

     negative rho (up, down):  1.848E-01 0.000E+00

     total cpu time spent up to now is       49.7 secs

     total energy              =      -2.29444744 Ry
     estimated scf accuracy    <       0.00000028 Ry

     iteration # 97     ecut=    15.00 Ry     beta= 0.70
     Davidson diagonalization with overlap

---- Real-time Memory Report at c_bands before calling an iterative solver
           208 MiB given to the printing process from OS
             0 MiB allocation reported by mallinfo(arena+hblkhd)
           363 MiB available memory on the node where the printing process lives
------------------
     ethr =  8.54E-11,  avg # of iterations =  5.0

     negative rho (up, down):  1.849E-01 0.000E+00

     total cpu time spent up to now is       50.1 secs

     total energy              =      -2.29442407 Ry
     estimated scf accuracy    <       0.00000002 Ry

     iteration # 98     ecut=    15.00 Ry     beta= 0.70
     Davidson diagonalization with overlap

---- Real-time Memory Report at c_bands before calling an iterative solver
           208 MiB given to the printing process from OS
             0 MiB allocation reported by mallinfo(arena+hblkhd)
           363 MiB available memory on the node where the printing process lives
------------------
     ethr =  8.54E-11,  avg # of iterations =  5.0

     negative rho (up, down):  1.848E-01 0.000E+00

     total cpu time spent up to now is       50.6 secs

     total energy              =      -2.29443759 Ry
     estimated scf accuracy    <       0.00000001 Ry

     iteration # 99     ecut=    15.00 Ry     beta= 0.70
     Davidson diagonalization with overlap

---- Real-time Memory Report at c_bands before calling an iterative solver
           208 MiB given to the printing process from OS
             0 MiB allocation reported by mallinfo(arena+hblkhd)
           363 MiB available memory on the node where the printing process lives
------------------
     ethr =  8.54E-11,  avg # of iterations =  4.0

     negative rho (up, down):  1.848E-01 0.000E+00

     total cpu time spent up to now is       51.0 secs

     total energy              =      -2.29443851 Ry
     estimated scf accuracy    <       0.00000008 Ry

     iteration #100     ecut=    15.00 Ry     beta= 0.70
     Davidson diagonalization with overlap

---- Real-time Memory Report at c_bands before calling an iterative solver
           208 MiB given to the printing process from OS
             0 MiB allocation reported by mallinfo(arena+hblkhd)
           363 MiB available memory on the node where the printing process lives
------------------
     ethr =  8.54E-11,  avg # of iterations =  3.0

     negative rho (up, down):  1.848E-01 0.000E+00

     total cpu time spent up to now is       51.4 secs

     total energy              =      -2.29443229 Ry
     estimated scf accuracy    <       0.00000010 Ry

     End of self-consistent calculation

     convergence NOT achieved after 100 iterations: stopping

     Writing config to output data dir ./.save/
     Message from routine punch:
     wavefunctions written to file

     init_run     :      0.35s CPU      0.38s WALL (       1 calls)
     electrons    :     50.16s CPU     50.31s WALL (       3 calls)
     update_pot   :      0.49s CPU      0.49s WALL (       2 calls)
     forces       :      0.17s CPU      0.17s WALL (       2 calls)

     Called by init_run:
     wfcinit      :      0.03s CPU      0.03s WALL (       1 calls)
     wfcinit:atom :      0.00s CPU      0.00s WALL (       1 calls)
     wfcinit:wfcr :      0.03s CPU      0.03s WALL (       1 calls)
     potinit      :      0.21s CPU      0.23s WALL (       1 calls)
     hinit0       :      0.02s CPU      0.02s WALL (       1 calls)

     Called by electrons:
     c_bands      :     12.40s CPU     12.42s WALL (     121 calls)
     sum_band     :      5.57s CPU      5.58s WALL (     121 calls)
     v_of_rho     :     24.88s CPU     24.91s WALL (     123 calls)
     v_h          :      1.39s CPU      1.39s WALL (     123 calls)
     v_xc         :     23.49s CPU     23.52s WALL (     123 calls)
     newd         :      1.80s CPU      1.80s WALL (     123 calls)
     mix_rho      :      5.66s CPU      5.71s WALL (     121 calls)

     Called by c_bands:
     init_us_2    :      0.17s CPU      0.17s WALL (     243 calls)
     init_us_2:cp :      0.17s CPU      0.17s WALL (     243 calls)
     cegterg      :     12.28s CPU     12.30s WALL (     121 calls)

     Called by sum_band:
     sum_band:wei :      0.00s CPU      0.00s WALL (     121 calls)
     sum_band:loo :      1.65s CPU      1.65s WALL (     121 calls)
     sum_band:buf :      0.00s CPU      0.00s WALL (     121 calls)
     sum_band:ini :      0.09s CPU      0.09s WALL (     121 calls)
     sum_band:cal :      0.02s CPU      0.02s WALL (     121 calls)
     sum_band:bec :      0.00s CPU      0.00s WALL (     121 calls)
     addusdens    :      0.50s CPU      0.51s WALL (     121 calls)
     addusd:skk   :      0.15s CPU      0.15s WALL (     121 calls)
     addusd:dgemm :      0.11s CPU      0.11s WALL (     121 calls)
     addusd:qvan2 :      0.13s CPU      0.13s WALL (     121 calls)

     Called by *egterg:
     cdiaghg      :      0.01s CPU      0.01s WALL (     610 calls)
     cegterg:over :      0.17s CPU      0.17s WALL (     492 calls)
     cegterg:upda :      0.13s CPU      0.13s WALL (     492 calls)
     cegterg:last :      0.26s CPU      0.26s WALL (     369 calls)
     h_psi        :     11.47s CPU     11.49s WALL (     614 calls)
     s_psi        :      0.06s CPU      0.06s WALL (     614 calls)
     g_psi        :      0.06s CPU      0.06s WALL (     492 calls)

     Called by h_psi:
     h_psi:calbec :      0.09s CPU      0.09s WALL (     614 calls)
     vloc_psi     :     11.28s CPU     11.29s WALL (     614 calls)
     add_vuspsi   :      0.07s CPU      0.07s WALL (     614 calls)

     General routines
     calbec       :      0.11s CPU      0.11s WALL (     743 calls)
     fft          :     12.19s CPU     12.21s WALL (    1360 calls)
     ffts         :      1.13s CPU      1.13s WALL (     121 calls)
     fftw         :     11.62s CPU     11.63s WALL (    2066 calls)
     davcio       :      0.00s CPU      0.01s WALL (      19 calls)


     PWSCF        :     51.28s CPU     51.47s WALL


   This run was terminated on:   3: 1: 7  28Feb2022            

=------------------------------------------------------------------------------=
   JOB DONE.
=------------------------------------------------------------------------------=
