
     Program PWSCF v.7.0 starts on 28Feb2022 at 23:57:57 

     This program is part of the open-source Quantum ESPRESSO suite
     for quantum simulation of materials; please cite
         "P. Giannozzi et al., J. Phys.:Condens. Matter 21 395502 (2009);
         "P. Giannozzi et al., J. Phys.:Condens. Matter 29 465901 (2017);
         "P. Giannozzi et al., J. Chem. Phys. 152 154105 (2020);
          URL http://www.quantum-espresso.org", 
     in publications or presentations arising from this work. More details at
     http://www.quantum-espresso.org/quote

     Serial version
     1223 MiB available memory on the printing compute node when the environment starts

     Waiting for input...
     Reading input from standard input

     Current dimensions of program PWSCF are:
     Max number of different atomic species (ntypx) = 10
     Max number of k-points (npk) =  40000
     Max angular momentum in pseudopotentials (lmaxx) =  4

    ============================================================
    |  pseudopotential report for atomic species:  1           |
    |        pseudo potential version   7   3   2              |
    ------------------------------------------------------------
    |  oxygen              PBE                  exchange-corr  |
    |  z =   8.    zv( 1) =   6.    exfact =   5.00000         |
    |  ifpcor =  0           atomic energy = -31.58351 Ry      |
    |  index    orbital      occupation    energy              |
    |    1        200           2.00       -1.76               |
    |    2        210           4.00       -0.66               |
    |  rinner =  0.7000  0.7000  0.7000                        |
    |    new generation scheme:                                |
    |    nbeta =  4     kkbeta =  519     rcloc =    1.0000    |
    |    ibeta    l     epsilon   rcut                         |
    |      1       0      -1.76   1.20                         |
    |      2       0      -0.66   1.20                         |
    |      3       1      -1.76   1.20                         |
    |      4       1      -0.66   1.20                         |
    ============================================================

     G-vector sticks info
     --------------------
     sticks:   dense  smooth     PW     G-vecs:    dense   smooth      PW
     Sum        3265    3265    889               140089   140089   20377

     Using Slab Decomposition



     bravais-lattice index     =            1
     lattice parameter (alat)  =      32.0000  a.u.
     unit-cell volume          =   32768.0000 (a.u.)^3
     number of atoms/cell      =            2
     number of atomic types    =            1
     number of electrons       =        12.00
     number of Kohn-Sham states=            8
     kinetic-energy cutoff     =      10.0000  Ry
     charge density cutoff     =      40.0000  Ry
     scf convergence threshold =      1.0E-08
     mixing beta               =       0.7000
     number of iterations used =            8  plain     mixing
     Exchange-correlation= PBE
                           (   1   4   3   4   0   0   0)

     celldm(1)=  32.000000  celldm(2)=   0.000000  celldm(3)=   0.000000
     celldm(4)=   0.000000  celldm(5)=   0.000000  celldm(6)=   0.000000

     crystal axes: (cart. coord. in units of alat)
               a(1) = (   1.000000   0.000000   0.000000 )  
               a(2) = (   0.000000   1.000000   0.000000 )  
               a(3) = (   0.000000   0.000000   1.000000 )  

     reciprocal axes: (cart. coord. in units 2 pi/alat)
               b(1) = (  1.000000  0.000000  0.000000 )  
               b(2) = (  0.000000  1.000000  0.000000 )  
               b(3) = (  0.000000  0.000000  1.000000 )  


     PseudoPot. # 1 for ox read from file:
     /root/q-e/pseudo/O_US.van
     MD5 check sum: 7e325307d184e51bd80757047dcf04f9
     Pseudo is Ultrasoft, Zval =  6.0
     Generated by Vanderbilt code, v. 7.3.2
     Using radial grid of  737 points,  4 beta functions with: 
                l(1) =   0
                l(2) =   0
                l(3) =   1
                l(4) =   1
     Q(r) pseudized with  8 coefficients,  rinner =    0.700   0.700   0.700


     atomic species   valence    mass     pseudopotential
        O              6.00    15.99900     ox( 1.00)

      8 Sym. Ops. (no inversion) found


                                    s                        frac. trans.

      isym =  1     identity                                     

 cryst.   s( 1) = (     1          0          0      )
                  (     0          1          0      )
                  (     0          0          1      )

 cart.    s( 1) = (  1.0000000  0.0000000  0.0000000 )
                  (  0.0000000  1.0000000  0.0000000 )
                  (  0.0000000  0.0000000  1.0000000 )


      isym =  2     180 deg rotation - cart. axis [1,0,0]        

 cryst.   s( 2) = (     1          0          0      )
                  (     0         -1          0      )
                  (     0          0         -1      )

 cart.    s( 2) = (  1.0000000  0.0000000  0.0000000 )
                  (  0.0000000 -1.0000000  0.0000000 )
                  (  0.0000000  0.0000000 -1.0000000 )


      isym =  3      90 deg rotation - cart. axis [-1,0,0]       

 cryst.   s( 3) = (     1          0          0      )
                  (     0          0         -1      )
                  (     0          1          0      )

 cart.    s( 3) = (  1.0000000  0.0000000  0.0000000 )
                  (  0.0000000  0.0000000  1.0000000 )
                  (  0.0000000 -1.0000000  0.0000000 )


      isym =  4      90 deg rotation - cart. axis [1,0,0]        

 cryst.   s( 4) = (     1          0          0      )
                  (     0          0          1      )
                  (     0         -1          0      )

 cart.    s( 4) = (  1.0000000  0.0000000  0.0000000 )
                  (  0.0000000  0.0000000 -1.0000000 )
                  (  0.0000000  1.0000000  0.0000000 )


      isym =  5     inv. 180 deg rotation - cart. axis [0,0,1]   

 cryst.   s( 5) = (     1          0          0      )
                  (     0          1          0      )
                  (     0          0         -1      )

 cart.    s( 5) = (  1.0000000  0.0000000  0.0000000 )
                  (  0.0000000  1.0000000  0.0000000 )
                  (  0.0000000  0.0000000 -1.0000000 )


      isym =  6     inv. 180 deg rotation - cart. axis [0,1,0]   

 cryst.   s( 6) = (     1          0          0      )
                  (     0         -1          0      )
                  (     0          0          1      )

 cart.    s( 6) = (  1.0000000  0.0000000  0.0000000 )
                  (  0.0000000 -1.0000000  0.0000000 )
                  (  0.0000000  0.0000000  1.0000000 )


      isym =  7     inv. 180 deg rotation - cart. axis [0,1,1]   

 cryst.   s( 7) = (     1          0          0      )
                  (     0          0         -1      )
                  (     0         -1          0      )

 cart.    s( 7) = (  1.0000000  0.0000000  0.0000000 )
                  (  0.0000000  0.0000000 -1.0000000 )
                  (  0.0000000 -1.0000000  0.0000000 )


      isym =  8     inv. 180 deg rotation - cart. axis [0,1,-1]  

 cryst.   s( 8) = (     1          0          0      )
                  (     0          0          1      )
                  (     0          1          0      )

 cart.    s( 8) = (  1.0000000  0.0000000  0.0000000 )
                  (  0.0000000  0.0000000  1.0000000 )
                  (  0.0000000  1.0000000  0.0000000 )


     point group C_4v (4mm) 
     there are  5 classes
     the character table:

       E     2C4   C2    2s_v  2s_d 
A_1    1.00  1.00  1.00  1.00  1.00
A_2    1.00  1.00  1.00 -1.00 -1.00
B_1    1.00 -1.00  1.00  1.00 -1.00
B_2    1.00 -1.00  1.00 -1.00  1.00
E      2.00  0.00 -2.00  0.00  0.00

     the symmetry operations in each class and the name of the first element:

     E        1
          identity                                               
     2C4      3    4
           90 deg rotation - cart. axis [-1,0,0]                 
     C2       2
          180 deg rotation - cart. axis [1,0,0]                  
     2s_v     5    6
          inv. 180 deg rotation - cart. axis [0,0,1]             
     2s_d     7    8
          inv. 180 deg rotation - cart. axis [0,1,1]             

   Cartesian axes

     site n.     atom                  positions (alat units)
         1           O   tau(   1) = (   0.0000000   0.0000000   0.0000000  )
         2           O   tau(   2) = (   0.0707737   0.0000000   0.0000000  )

   Crystallographic axes

     site n.     atom                  positions (cryst. coord.)
         1           O   tau(   1) = (  0.0000000  0.0000000  0.0000000  )
         2           O   tau(   2) = (  0.0707737  0.0000000  0.0000000  )

     number of k points=     1
                       cart. coord. in units 2pi/alat
        k(    1) = (  -0.5000000  -0.5000000  -0.5000000), wk =   2.0000000

                       cryst. coord.
        k(    1) = (  -0.5000000  -0.5000000  -0.5000000), wk =   2.0000000

     Dense  grid:   140089 G-vectors     FFT dimensions: (  72,  72,  72)

     Dynamical RAM for                 wfc:       2.14 MB

     Dynamical RAM for     wfc (w. buffer):       2.14 MB

     Dynamical RAM for           str. fact:       2.14 MB

     Dynamical RAM for           local pot:       0.00 MB

     Dynamical RAM for          nlocal pot:       4.27 MB

     Dynamical RAM for                qrad:       0.15 MB

     Dynamical RAM for          rho,v,vnew:      14.96 MB

     Dynamical RAM for               rhoin:       4.99 MB

     Dynamical RAM for            rho*nmix:      34.20 MB

     Dynamical RAM for           G-vectors:       9.08 MB

     Dynamical RAM for          h,s,v(r/c):       0.01 MB

     Dynamical RAM for          <psi|beta>:       0.00 MB

     Dynamical RAM for                 psi:       4.27 MB

     Dynamical RAM for                hpsi:       4.27 MB

     Dynamical RAM for                spsi:       4.27 MB

     Dynamical RAM for      wfcinit/wfcrot:       4.27 MB

     Dynamical RAM for           addusdens:      96.19 MB

     Estimated static dynamical RAM per process >      56.23 MB

     Estimated max dynamical RAM per process >     186.62 MB

     Initial potential from superposition of free atoms

     starting charge      12.0000, renormalised to      12.0000

     negative rho (up, down):  1.387E+00 0.000E+00
     Starting wfcs are    8 randomized atomic wfcs

     total cpu time spent up to now is        0.5 secs

     Self-consistent Calculation

     iteration #  1     ecut=    10.00 Ry     beta= 0.70
     Davidson diagonalization with overlap

---- Real-time Memory Report at c_bands before calling an iterative solver
           156 MiB given to the printing process from OS
             0 MiB allocation reported by mallinfo(arena+hblkhd)
          1159 MiB available memory on the node where the printing process lives
------------------
     ethr =  1.00E-02,  avg # of iterations =  8.0

     negative rho (up, down):  7.759E-01 0.000E+00

     total cpu time spent up to now is        1.3 secs

     total energy              =     -57.71043740 Ry
     estimated scf accuracy    <       3.76344647 Ry

     iteration #  2     ecut=    10.00 Ry     beta= 0.70
     Davidson diagonalization with overlap

---- Real-time Memory Report at c_bands before calling an iterative solver
           210 MiB given to the printing process from OS
             0 MiB allocation reported by mallinfo(arena+hblkhd)
          1101 MiB available memory on the node where the printing process lives
------------------
     ethr =  1.00E-02,  avg # of iterations =  5.0

     negative rho (up, down):  8.811E-01 0.000E+00

     total cpu time spent up to now is        2.1 secs

     total energy              =     -60.07745126 Ry
     estimated scf accuracy    <       1.44894921 Ry

     iteration #  3     ecut=    10.00 Ry     beta= 0.70
     Davidson diagonalization with overlap

---- Real-time Memory Report at c_bands before calling an iterative solver
           214 MiB given to the printing process from OS
             0 MiB allocation reported by mallinfo(arena+hblkhd)
          1097 MiB available memory on the node where the printing process lives
------------------
     ethr =  1.00E-02,  avg # of iterations =  2.0

     negative rho (up, down):  1.009E+00 0.000E+00

     total cpu time spent up to now is        2.7 secs

     total energy              =     -59.94248244 Ry
     estimated scf accuracy    <       0.27343994 Ry

     iteration #  4     ecut=    10.00 Ry     beta= 0.70
     Davidson diagonalization with overlap

---- Real-time Memory Report at c_bands before calling an iterative solver
           219 MiB given to the printing process from OS
             0 MiB allocation reported by mallinfo(arena+hblkhd)
          1093 MiB available memory on the node where the printing process lives
------------------
     ethr =  2.28E-03,  avg # of iterations =  4.0

     negative rho (up, down):  1.058E+00 0.000E+00

     total cpu time spent up to now is        3.3 secs

     total energy              =     -59.96749889 Ry
     estimated scf accuracy    <       0.00808871 Ry

     iteration #  5     ecut=    10.00 Ry     beta= 0.70
     Davidson diagonalization with overlap

---- Real-time Memory Report at c_bands before calling an iterative solver
           223 MiB given to the printing process from OS
             0 MiB allocation reported by mallinfo(arena+hblkhd)
          1088 MiB available memory on the node where the printing process lives
------------------
     ethr =  6.74E-05,  avg # of iterations =  7.0

     negative rho (up, down):  1.060E+00 0.000E+00

     total cpu time spent up to now is        4.0 secs

     total energy              =     -59.96788381 Ry
     estimated scf accuracy    <       0.00059062 Ry

     iteration #  6     ecut=    10.00 Ry     beta= 0.70
     Davidson diagonalization with overlap

---- Real-time Memory Report at c_bands before calling an iterative solver
           227 MiB given to the printing process from OS
             0 MiB allocation reported by mallinfo(arena+hblkhd)
          1084 MiB available memory on the node where the printing process lives
------------------
     ethr =  4.92E-06,  avg # of iterations = 15.0

     negative rho (up, down):  1.062E+00 0.000E+00

     total cpu time spent up to now is        4.9 secs

     total energy              =     -59.96808202 Ry
     estimated scf accuracy    <       0.00016588 Ry

     iteration #  7     ecut=    10.00 Ry     beta= 0.70
     Davidson diagonalization with overlap

---- Real-time Memory Report at c_bands before calling an iterative solver
           232 MiB given to the printing process from OS
             0 MiB allocation reported by mallinfo(arena+hblkhd)
          1080 MiB available memory on the node where the printing process lives
------------------
     ethr =  1.38E-06,  avg # of iterations =  2.0

     negative rho (up, down):  1.060E+00 0.000E+00

     total cpu time spent up to now is        5.5 secs

     total energy              =     -59.96809939 Ry
     estimated scf accuracy    <       0.00001827 Ry

     iteration #  8     ecut=    10.00 Ry     beta= 0.70
     Davidson diagonalization with overlap

---- Real-time Memory Report at c_bands before calling an iterative solver
           236 MiB given to the printing process from OS
             0 MiB allocation reported by mallinfo(arena+hblkhd)
          1076 MiB available memory on the node where the printing process lives
------------------
     ethr =  1.52E-07,  avg # of iterations =  2.0

     negative rho (up, down):  1.061E+00 0.000E+00

     total cpu time spent up to now is        6.2 secs

     total energy              =     -59.96810357 Ry
     estimated scf accuracy    <       0.00001481 Ry

     iteration #  9     ecut=    10.00 Ry     beta= 0.70
     Davidson diagonalization with overlap

---- Real-time Memory Report at c_bands before calling an iterative solver
           240 MiB given to the printing process from OS
             0 MiB allocation reported by mallinfo(arena+hblkhd)
          1071 MiB available memory on the node where the printing process lives
------------------
     ethr =  1.23E-07,  avg # of iterations =  2.0

     negative rho (up, down):  1.061E+00 0.000E+00

     total cpu time spent up to now is        6.9 secs

     total energy              =     -59.96810641 Ry
     estimated scf accuracy    <       0.00000008 Ry

     iteration # 10     ecut=    10.00 Ry     beta= 0.70
     Davidson diagonalization with overlap

---- Real-time Memory Report at c_bands before calling an iterative solver
           244 MiB given to the printing process from OS
             0 MiB allocation reported by mallinfo(arena+hblkhd)
          1067 MiB available memory on the node where the printing process lives
------------------
     ethr =  6.42E-10,  avg # of iterations =  4.0

     negative rho (up, down):  1.061E+00 0.000E+00

     total cpu time spent up to now is        7.5 secs

     End of self-consistent calculation

          k =-0.5000-0.5000-0.5000 ( 17592 PWs)   bands (ev):

   -38.8027 -25.9246 -15.4547 -12.8002 -12.8002  -4.7929  -4.7929  -1.7561

     occupation numbers 
     1.0000   1.0000   1.0000   1.0000   1.0000   1.0000   0.0000   0.0000

     highest occupied, lowest unoccupied level (ev):    -4.7929   -4.7929

!    total energy              =     -59.96810653 Ry
     estimated scf accuracy    <          2.9E-09 Ry

     The total energy is the sum of the following terms:
     one-electron contribution =    -133.05425376 Ry
     hartree contribution      =      66.51584560 Ry
     xc contribution           =     -12.47712398 Ry
     ewald contribution        =      19.04742561 Ry

     convergence has been achieved in  10 iterations

     Writing all to output data dir ./.save/

     init_run     :      0.48s CPU      0.50s WALL (       1 calls)
     electrons    :      6.87s CPU      6.98s WALL (       1 calls)

     Called by init_run:
     wfcinit      :      0.10s CPU      0.10s WALL (       1 calls)
     wfcinit:atom :      0.00s CPU      0.00s WALL (       1 calls)
     wfcinit:wfcr :      0.09s CPU      0.09s WALL (       1 calls)
     potinit      :      0.21s CPU      0.22s WALL (       1 calls)
     hinit0       :      0.06s CPU      0.06s WALL (       1 calls)

     Called by electrons:
     c_bands      :      2.91s CPU      2.92s WALL (      10 calls)
     sum_band     :      1.21s CPU      1.24s WALL (      10 calls)
     v_of_rho     :      2.06s CPU      2.08s WALL (      11 calls)
     v_h          :      0.10s CPU      0.10s WALL (      11 calls)
     v_xc         :      1.97s CPU      1.98s WALL (      11 calls)
     newd         :      0.67s CPU      0.72s WALL (      11 calls)
     mix_rho      :      0.22s CPU      0.23s WALL (      10 calls)

     Called by c_bands:
     init_us_2    :      0.06s CPU      0.06s WALL (      21 calls)
     init_us_2:cp :      0.06s CPU      0.06s WALL (      21 calls)
     cegterg      :      2.86s CPU      2.87s WALL (      10 calls)

     Called by sum_band:
     sum_band:wei :      0.00s CPU      0.00s WALL (      10 calls)
     sum_band:loo :      0.43s CPU      0.44s WALL (      10 calls)
     sum_band:buf :      0.00s CPU      0.00s WALL (      10 calls)
     sum_band:ini :      0.03s CPU      0.03s WALL (      10 calls)
     sum_band:cal :      0.03s CPU      0.03s WALL (      10 calls)
     sum_band:bec :      0.00s CPU      0.00s WALL (      10 calls)
     addusdens    :      0.56s CPU      0.59s WALL (      10 calls)
     addusd:skk   :      0.01s CPU      0.01s WALL (      10 calls)
     addusd:dgemm :      0.18s CPU      0.20s WALL (      10 calls)
     addusd:qvan2 :      0.20s CPU      0.20s WALL (      10 calls)

     Called by *egterg:
     cdiaghg      :      0.00s CPU      0.00s WALL (      61 calls)
     cegterg:over :      0.10s CPU      0.10s WALL (      51 calls)
     cegterg:upda :      0.06s CPU      0.06s WALL (      51 calls)
     cegterg:last :      0.14s CPU      0.14s WALL (      25 calls)
     h_psi        :      2.50s CPU      2.51s WALL (      62 calls)
     s_psi        :      0.07s CPU      0.07s WALL (      62 calls)
     g_psi        :      0.01s CPU      0.01s WALL (      51 calls)

     Called by h_psi:
     h_psi:calbec :      0.10s CPU      0.10s WALL (      62 calls)
     vloc_psi     :      2.33s CPU      2.33s WALL (      62 calls)
     add_vuspsi   :      0.07s CPU      0.07s WALL (      62 calls)

     General routines
     calbec       :      0.12s CPU      0.12s WALL (      72 calls)
     fft          :      0.86s CPU      0.86s WALL (     120 calls)
     ffts         :      0.07s CPU      0.07s WALL (      10 calls)
     fftw         :      2.44s CPU      2.44s WALL (     582 calls)


     PWSCF        :      7.42s CPU      7.55s WALL


   This run was terminated on:  23:58: 4  28Feb2022            

=------------------------------------------------------------------------------=
   JOB DONE.
=------------------------------------------------------------------------------=
