
     Program PWSCF v.7.0 starts on 28Feb2022 at 22:14: 5 

     This program is part of the open-source Quantum ESPRESSO suite
     for quantum simulation of materials; please cite
         "P. Giannozzi et al., J. Phys.:Condens. Matter 21 395502 (2009);
         "P. Giannozzi et al., J. Phys.:Condens. Matter 29 465901 (2017);
         "P. Giannozzi et al., J. Chem. Phys. 152 154105 (2020);
          URL http://www.quantum-espresso.org", 
     in publications or presentations arising from this work. More details at
     http://www.quantum-espresso.org/quote

     Serial version
     1309 MiB available memory on the printing compute node when the environment starts

     Waiting for input...
     Reading input from standard input

     Current dimensions of program PWSCF are:
     Max number of different atomic species (ntypx) = 10
     Max number of k-points (npk) =  40000
     Max angular momentum in pseudopotentials (lmaxx) =  4

    ============================================================
    |  pseudopotential report for atomic species:  1           |
    |        pseudo potential version   7   3   2              |
    ------------------------------------------------------------
    |  hydrogen            PBE                  exchange-corr  |
    |  z =   1.    zv( 1) =   1.    exfact =   5.00000         |
    |  ifpcor =  0           atomic energy =  -0.91772 Ry      |
    |  index    orbital      occupation    energy              |
    |    1        100           1.00       -0.48               |
    |  rinner =  0.5000                                        |
    |    new generation scheme:                                |
    |    nbeta =  1     kkbeta =  271     rcloc =    0.6000    |
    |    ibeta    l     epsilon   rcut                         |
    |      1       0      -0.48   0.80                         |
    ============================================================

     IMPORTANT: XC functional enforced from input :
     Exchange-correlation= BLYP
                           (   1   3   1   3   0   0   0)
     Any further DFT definition will be discarded
     Please, verify this is what you really want


     G-vector sticks info
     --------------------
     sticks:   dense  smooth     PW     G-vecs:    dense   smooth      PW
     Sum        1433    1433    421                40651    40651    6451

     Using Slab Decomposition



     bravais-lattice index     =            1
     lattice parameter (alat)  =      30.0000  a.u.
     unit-cell volume          =   27000.0000 (a.u.)^3
     number of atoms/cell      =            2
     number of atomic types    =            1
     number of electrons       =         2.00
     number of Kohn-Sham states=            2
     kinetic-energy cutoff     =       5.0000  Ry
     charge density cutoff     =      20.0000  Ry
     scf convergence threshold =      1.0E-08
     mixing beta               =       0.7000
     number of iterations used =            8  plain     mixing
     Exchange-correlation= BLYP
                           (   1   3   1   3   0   0   0)

     celldm(1)=  30.000000  celldm(2)=   0.000000  celldm(3)=   0.000000
     celldm(4)=   0.000000  celldm(5)=   0.000000  celldm(6)=   0.000000

     crystal axes: (cart. coord. in units of alat)
               a(1) = (   1.000000   0.000000   0.000000 )  
               a(2) = (   0.000000   1.000000   0.000000 )  
               a(3) = (   0.000000   0.000000   1.000000 )  

     reciprocal axes: (cart. coord. in units 2 pi/alat)
               b(1) = (  1.000000  0.000000  0.000000 )  
               b(2) = (  0.000000  1.000000  0.000000 )  
               b(3) = (  0.000000  0.000000  1.000000 )  


     PseudoPot. # 1 for hy read from file:
     /root/q-e/pseudo/H_US.van
     MD5 check sum: a9a9bfe98ff56cf4de197d71fc46bb44
     Pseudo is Ultrasoft, Zval =  1.0
     Generated by Vanderbilt code, v. 7.3.2
     Using radial grid of  399 points,  1 beta functions with: 
                l(1) =   0
     Q(r) pseudized with  8 coefficients,  rinner =    0.500

     atomic species   valence    mass     pseudopotential
        H              1.00     1.00784     hy( 1.00)

      8 Sym. Ops. (no inversion) found


                                    s                        frac. trans.

      isym =  1     identity                                     

 cryst.   s( 1) = (     1          0          0      )
                  (     0          1          0      )
                  (     0          0          1      )

 cart.    s( 1) = (  1.0000000  0.0000000  0.0000000 )
                  (  0.0000000  1.0000000  0.0000000 )
                  (  0.0000000  0.0000000  1.0000000 )


      isym =  2     180 deg rotation - cart. axis [1,0,0]        

 cryst.   s( 2) = (     1          0          0      )
                  (     0         -1          0      )
                  (     0          0         -1      )

 cart.    s( 2) = (  1.0000000  0.0000000  0.0000000 )
                  (  0.0000000 -1.0000000  0.0000000 )
                  (  0.0000000  0.0000000 -1.0000000 )


      isym =  3      90 deg rotation - cart. axis [-1,0,0]       

 cryst.   s( 3) = (     1          0          0      )
                  (     0          0         -1      )
                  (     0          1          0      )

 cart.    s( 3) = (  1.0000000  0.0000000  0.0000000 )
                  (  0.0000000  0.0000000  1.0000000 )
                  (  0.0000000 -1.0000000  0.0000000 )


      isym =  4      90 deg rotation - cart. axis [1,0,0]        

 cryst.   s( 4) = (     1          0          0      )
                  (     0          0          1      )
                  (     0         -1          0      )

 cart.    s( 4) = (  1.0000000  0.0000000  0.0000000 )
                  (  0.0000000  0.0000000 -1.0000000 )
                  (  0.0000000  1.0000000  0.0000000 )


      isym =  5     inv. 180 deg rotation - cart. axis [0,0,1]   

 cryst.   s( 5) = (     1          0          0      )
                  (     0          1          0      )
                  (     0          0         -1      )

 cart.    s( 5) = (  1.0000000  0.0000000  0.0000000 )
                  (  0.0000000  1.0000000  0.0000000 )
                  (  0.0000000  0.0000000 -1.0000000 )


      isym =  6     inv. 180 deg rotation - cart. axis [0,1,0]   

 cryst.   s( 6) = (     1          0          0      )
                  (     0         -1          0      )
                  (     0          0          1      )

 cart.    s( 6) = (  1.0000000  0.0000000  0.0000000 )
                  (  0.0000000 -1.0000000  0.0000000 )
                  (  0.0000000  0.0000000  1.0000000 )


      isym =  7     inv. 180 deg rotation - cart. axis [0,1,1]   

 cryst.   s( 7) = (     1          0          0      )
                  (     0          0         -1      )
                  (     0         -1          0      )

 cart.    s( 7) = (  1.0000000  0.0000000  0.0000000 )
                  (  0.0000000  0.0000000 -1.0000000 )
                  (  0.0000000 -1.0000000  0.0000000 )


      isym =  8     inv. 180 deg rotation - cart. axis [0,1,-1]  

 cryst.   s( 8) = (     1          0          0      )
                  (     0          0          1      )
                  (     0          1          0      )

 cart.    s( 8) = (  1.0000000  0.0000000  0.0000000 )
                  (  0.0000000  0.0000000  1.0000000 )
                  (  0.0000000  1.0000000  0.0000000 )


     point group C_4v (4mm) 
     there are  5 classes
     the character table:

       E     2C4   C2    2s_v  2s_d 
A_1    1.00  1.00  1.00  1.00  1.00
A_2    1.00  1.00  1.00 -1.00 -1.00
B_1    1.00 -1.00  1.00  1.00 -1.00
B_2    1.00 -1.00  1.00 -1.00  1.00
E      2.00  0.00 -2.00  0.00  0.00

     the symmetry operations in each class and the name of the first element:

     E        1
          identity                                               
     2C4      3    4
           90 deg rotation - cart. axis [-1,0,0]                 
     C2       2
          180 deg rotation - cart. axis [1,0,0]                  
     2s_v     5    6
          inv. 180 deg rotation - cart. axis [0,0,1]             
     2s_d     7    8
          inv. 180 deg rotation - cart. axis [0,1,1]             

   Cartesian axes

     site n.     atom                  positions (alat units)
         1           H   tau(   1) = (   0.0000000   0.0000000   0.0000000  )
         2           H   tau(   2) = (   0.0314954   0.0000000   0.0000000  )

   Crystallographic axes

     site n.     atom                  positions (cryst. coord.)
         1           H   tau(   1) = (  0.0000000  0.0000000  0.0000000  )
         2           H   tau(   2) = (  0.0314954  0.0000000  0.0000000  )

     number of k points=     1
                       cart. coord. in units 2pi/alat
        k(    1) = (  -0.5000000  -0.5000000  -0.5000000), wk =   2.0000000

                       cryst. coord.
        k(    1) = (  -0.5000000  -0.5000000  -0.5000000), wk =   2.0000000

     Dense  grid:    40651 G-vectors     FFT dimensions: (  45,  45,  45)

     Dynamical RAM for                 wfc:       0.16 MB

     Dynamical RAM for     wfc (w. buffer):       0.16 MB

     Dynamical RAM for           str. fact:       0.62 MB

     Dynamical RAM for           local pot:       0.00 MB

     Dynamical RAM for          nlocal pot:       0.16 MB

     Dynamical RAM for                qrad:       0.00 MB

     Dynamical RAM for          rho,v,vnew:       3.95 MB

     Dynamical RAM for               rhoin:       1.32 MB

     Dynamical RAM for            rho*nmix:       9.92 MB

     Dynamical RAM for           G-vectors:       2.64 MB

     Dynamical RAM for          h,s,v(r/c):       0.00 MB

     Dynamical RAM for          <psi|beta>:       0.00 MB

     Dynamical RAM for                 psi:       0.31 MB

     Dynamical RAM for                hpsi:       0.31 MB

     Dynamical RAM for                spsi:       0.31 MB

     Dynamical RAM for      wfcinit/wfcrot:       0.31 MB

     Dynamical RAM for           addusdens:       3.72 MB

     Estimated static dynamical RAM per process >      13.55 MB

     Estimated max dynamical RAM per process >      27.20 MB

     Initial potential from superposition of free atoms

     starting charge       2.0000, renormalised to       2.0000

     negative rho (up, down):  4.516E-01 0.000E+00
     Starting wfcs are    2 randomized atomic wfcs

     total cpu time spent up to now is        0.1 secs

     Self-consistent Calculation

     iteration #  1     ecut=     5.00 Ry     beta= 0.70
     Davidson diagonalization with overlap

---- Real-time Memory Report at c_bands before calling an iterative solver
            39 MiB given to the printing process from OS
             0 MiB allocation reported by mallinfo(arena+hblkhd)
          1290 MiB available memory on the node where the printing process lives
------------------
     ethr =  1.00E-02,  avg # of iterations =  7.0

     negative rho (up, down):  4.377E-01 0.000E+00

     total cpu time spent up to now is        0.2 secs

     total energy              =      -1.70641096 Ry
     estimated scf accuracy    <       0.04541576 Ry

     iteration #  2     ecut=     5.00 Ry     beta= 0.70
     Davidson diagonalization with overlap

---- Real-time Memory Report at c_bands before calling an iterative solver
            45 MiB given to the printing process from OS
             0 MiB allocation reported by mallinfo(arena+hblkhd)
          1277 MiB available memory on the node where the printing process lives
------------------
     ethr =  2.27E-03,  avg # of iterations =  1.0

     negative rho (up, down):  4.359E-01 0.000E+00

     total cpu time spent up to now is        0.3 secs

     total energy              =      -1.70410244 Ry
     estimated scf accuracy    <       0.00265525 Ry

     iteration #  3     ecut=     5.00 Ry     beta= 0.70
     Davidson diagonalization with overlap

---- Real-time Memory Report at c_bands before calling an iterative solver
            46 MiB given to the printing process from OS
             0 MiB allocation reported by mallinfo(arena+hblkhd)
          1276 MiB available memory on the node where the printing process lives
------------------
     ethr =  1.33E-04,  avg # of iterations =  7.0

     negative rho (up, down):  4.349E-01 0.000E+00

     total cpu time spent up to now is        0.3 secs

     total energy              =      -1.70759587 Ry
     estimated scf accuracy    <       0.00055861 Ry

     iteration #  4     ecut=     5.00 Ry     beta= 0.70
     Davidson diagonalization with overlap

---- Real-time Memory Report at c_bands before calling an iterative solver
            48 MiB given to the printing process from OS
             0 MiB allocation reported by mallinfo(arena+hblkhd)
          1275 MiB available memory on the node where the printing process lives
------------------
     ethr =  2.79E-05,  avg # of iterations =  1.0

     negative rho (up, down):  4.207E-01 0.000E+00

     total cpu time spent up to now is        0.4 secs

     total energy              =      -1.70929227 Ry
     estimated scf accuracy    <       0.00050141 Ry

     iteration #  5     ecut=     5.00 Ry     beta= 0.70
     Davidson diagonalization with overlap

---- Real-time Memory Report at c_bands before calling an iterative solver
            49 MiB given to the printing process from OS
             0 MiB allocation reported by mallinfo(arena+hblkhd)
          1273 MiB available memory on the node where the printing process lives
------------------
     ethr =  2.51E-05,  avg # of iterations =  2.0

     negative rho (up, down):  4.166E-01 0.000E+00

     total cpu time spent up to now is        0.5 secs

     total energy              =      -1.71200234 Ry
     estimated scf accuracy    <       0.00001075 Ry

     iteration #  6     ecut=     5.00 Ry     beta= 0.70
     Davidson diagonalization with overlap

---- Real-time Memory Report at c_bands before calling an iterative solver
            50 MiB given to the printing process from OS
             0 MiB allocation reported by mallinfo(arena+hblkhd)
          1272 MiB available memory on the node where the printing process lives
------------------
     c_bands:  1 eigenvalues not converged
     ethr =  5.38E-07,  avg # of iterations = 20.0

     negative rho (up, down):  4.176E-01 0.000E+00

     total cpu time spent up to now is        0.6 secs

     total energy              =      -1.71432449 Ry
     estimated scf accuracy    <       0.00027280 Ry

     iteration #  7     ecut=     5.00 Ry     beta= 0.70
     Davidson diagonalization with overlap

---- Real-time Memory Report at c_bands before calling an iterative solver
            51 MiB given to the printing process from OS
             0 MiB allocation reported by mallinfo(arena+hblkhd)
          1271 MiB available memory on the node where the printing process lives
------------------
     c_bands:  1 eigenvalues not converged
     ethr =  5.38E-07,  avg # of iterations = 20.0

     negative rho (up, down):  4.150E-01 0.000E+00

     total cpu time spent up to now is        0.7 secs

     total energy              =      -1.71025926 Ry
     estimated scf accuracy    <       0.00042784 Ry

     iteration #  8     ecut=     5.00 Ry     beta= 0.70
     Davidson diagonalization with overlap

---- Real-time Memory Report at c_bands before calling an iterative solver
            52 MiB given to the printing process from OS
             0 MiB allocation reported by mallinfo(arena+hblkhd)
          1270 MiB available memory on the node where the printing process lives
------------------
     c_bands:  1 eigenvalues not converged
     ethr =  5.38E-07,  avg # of iterations = 20.0

     negative rho (up, down):  4.154E-01 0.000E+00

     total cpu time spent up to now is        0.9 secs

     total energy              =      -1.71155942 Ry
     estimated scf accuracy    <       0.00017076 Ry

     iteration #  9     ecut=     5.00 Ry     beta= 0.70
     Davidson diagonalization with overlap

---- Real-time Memory Report at c_bands before calling an iterative solver
            54 MiB given to the printing process from OS
             0 MiB allocation reported by mallinfo(arena+hblkhd)
          1268 MiB available memory on the node where the printing process lives
------------------
     ethr =  5.38E-07,  avg # of iterations =  7.0

     negative rho (up, down):  4.138E-01 0.000E+00

     total cpu time spent up to now is        0.9 secs

     total energy              =      -1.71072626 Ry
     estimated scf accuracy    <       0.00017850 Ry

     iteration # 10     ecut=     5.00 Ry     beta= 0.70
     Davidson diagonalization with overlap

---- Real-time Memory Report at c_bands before calling an iterative solver
            55 MiB given to the printing process from OS
             0 MiB allocation reported by mallinfo(arena+hblkhd)
          1267 MiB available memory on the node where the printing process lives
------------------
     ethr =  5.38E-07,  avg # of iterations =  3.0

     negative rho (up, down):  4.147E-01 0.000E+00

     total cpu time spent up to now is        1.0 secs

     total energy              =      -1.71101655 Ry
     estimated scf accuracy    <       0.00013866 Ry

     iteration # 11     ecut=     5.00 Ry     beta= 0.70
     Davidson diagonalization with overlap

---- Real-time Memory Report at c_bands before calling an iterative solver
            55 MiB given to the printing process from OS
             0 MiB allocation reported by mallinfo(arena+hblkhd)
          1267 MiB available memory on the node where the printing process lives
------------------
     ethr =  5.38E-07,  avg # of iterations =  2.0

     negative rho (up, down):  4.137E-01 0.000E+00

     total cpu time spent up to now is        1.1 secs

     total energy              =      -1.71000600 Ry
     estimated scf accuracy    <       0.00014332 Ry

     iteration # 12     ecut=     5.00 Ry     beta= 0.70
     Davidson diagonalization with overlap

---- Real-time Memory Report at c_bands before calling an iterative solver
            55 MiB given to the printing process from OS
             0 MiB allocation reported by mallinfo(arena+hblkhd)
          1267 MiB available memory on the node where the printing process lives
------------------
     ethr =  5.38E-07,  avg # of iterations =  3.0

     negative rho (up, down):  4.158E-01 0.000E+00

     total cpu time spent up to now is        1.2 secs

     total energy              =      -1.71048561 Ry
     estimated scf accuracy    <       0.00006727 Ry

     iteration # 13     ecut=     5.00 Ry     beta= 0.70
     Davidson diagonalization with overlap

---- Real-time Memory Report at c_bands before calling an iterative solver
            55 MiB given to the printing process from OS
             0 MiB allocation reported by mallinfo(arena+hblkhd)
          1267 MiB available memory on the node where the printing process lives
------------------
     ethr =  5.38E-07,  avg # of iterations =  3.0

     negative rho (up, down):  4.142E-01 0.000E+00

     total cpu time spent up to now is        1.2 secs

     total energy              =      -1.71125801 Ry
     estimated scf accuracy    <       0.00010892 Ry

     iteration # 14     ecut=     5.00 Ry     beta= 0.70
     Davidson diagonalization with overlap

---- Real-time Memory Report at c_bands before calling an iterative solver
            55 MiB given to the printing process from OS
             0 MiB allocation reported by mallinfo(arena+hblkhd)
          1267 MiB available memory on the node where the printing process lives
------------------
     ethr =  5.38E-07,  avg # of iterations =  2.0

     negative rho (up, down):  4.169E-01 0.000E+00

     total cpu time spent up to now is        1.3 secs

     total energy              =      -1.71150242 Ry
     estimated scf accuracy    <       0.00017384 Ry

     iteration # 15     ecut=     5.00 Ry     beta= 0.70
     Davidson diagonalization with overlap

---- Real-time Memory Report at c_bands before calling an iterative solver
            55 MiB given to the printing process from OS
             0 MiB allocation reported by mallinfo(arena+hblkhd)
          1267 MiB available memory on the node where the printing process lives
------------------
     ethr =  5.38E-07,  avg # of iterations =  3.0

     negative rho (up, down):  4.090E-01 0.000E+00

     total cpu time spent up to now is        1.4 secs

     total energy              =      -1.71371216 Ry
     estimated scf accuracy    <       0.00023914 Ry

     iteration # 16     ecut=     5.00 Ry     beta= 0.70
     Davidson diagonalization with overlap

---- Real-time Memory Report at c_bands before calling an iterative solver
            55 MiB given to the printing process from OS
             0 MiB allocation reported by mallinfo(arena+hblkhd)
          1267 MiB available memory on the node where the printing process lives
------------------
     ethr =  5.38E-07,  avg # of iterations =  3.0

     negative rho (up, down):  4.088E-01 0.000E+00

     total cpu time spent up to now is        1.5 secs

     total energy              =      -1.71497624 Ry
     estimated scf accuracy    <       0.00051541 Ry

     iteration # 17     ecut=     5.00 Ry     beta= 0.70
     Davidson diagonalization with overlap

---- Real-time Memory Report at c_bands before calling an iterative solver
            55 MiB given to the printing process from OS
             0 MiB allocation reported by mallinfo(arena+hblkhd)
          1267 MiB available memory on the node where the printing process lives
------------------
     ethr =  5.38E-07,  avg # of iterations =  2.0

     negative rho (up, down):  4.213E-01 0.000E+00

     total cpu time spent up to now is        1.5 secs

     total energy              =      -1.71050548 Ry
     estimated scf accuracy    <       0.00062237 Ry

     iteration # 18     ecut=     5.00 Ry     beta= 0.70
     Davidson diagonalization with overlap

---- Real-time Memory Report at c_bands before calling an iterative solver
            55 MiB given to the printing process from OS
             0 MiB allocation reported by mallinfo(arena+hblkhd)
          1267 MiB available memory on the node where the printing process lives
------------------
     ethr =  5.38E-07,  avg # of iterations =  4.0

     negative rho (up, down):  4.212E-01 0.000E+00

     total cpu time spent up to now is        1.6 secs

     total energy              =      -1.71126115 Ry
     estimated scf accuracy    <       0.00002162 Ry

     iteration # 19     ecut=     5.00 Ry     beta= 0.70
     Davidson diagonalization with overlap

---- Real-time Memory Report at c_bands before calling an iterative solver
            55 MiB given to the printing process from OS
             0 MiB allocation reported by mallinfo(arena+hblkhd)
          1267 MiB available memory on the node where the printing process lives
------------------
     ethr =  5.38E-07,  avg # of iterations =  3.0

     negative rho (up, down):  4.197E-01 0.000E+00

     total cpu time spent up to now is        1.7 secs

     total energy              =      -1.71162176 Ry
     estimated scf accuracy    <       0.00000310 Ry

     iteration # 20     ecut=     5.00 Ry     beta= 0.70
     Davidson diagonalization with overlap

---- Real-time Memory Report at c_bands before calling an iterative solver
            55 MiB given to the printing process from OS
             0 MiB allocation reported by mallinfo(arena+hblkhd)
          1267 MiB available memory on the node where the printing process lives
------------------
     ethr =  1.55E-07,  avg # of iterations =  4.0

     negative rho (up, down):  4.207E-01 0.000E+00

     total cpu time spent up to now is        1.8 secs

     total energy              =      -1.71145730 Ry
     estimated scf accuracy    <       0.00017167 Ry

     iteration # 21     ecut=     5.00 Ry     beta= 0.70
     Davidson diagonalization with overlap

---- Real-time Memory Report at c_bands before calling an iterative solver
            55 MiB given to the printing process from OS
             0 MiB allocation reported by mallinfo(arena+hblkhd)
          1267 MiB available memory on the node where the printing process lives
------------------
     ethr =  1.55E-07,  avg # of iterations =  4.0

     negative rho (up, down):  4.164E-01 0.000E+00

     total cpu time spent up to now is        1.9 secs

     total energy              =      -1.71224228 Ry
     estimated scf accuracy    <       0.00003779 Ry

     iteration # 22     ecut=     5.00 Ry     beta= 0.70
     Davidson diagonalization with overlap

---- Real-time Memory Report at c_bands before calling an iterative solver
            55 MiB given to the printing process from OS
             0 MiB allocation reported by mallinfo(arena+hblkhd)
          1267 MiB available memory on the node where the printing process lives
------------------
     ethr =  1.55E-07,  avg # of iterations =  4.0

     negative rho (up, down):  4.162E-01 0.000E+00

     total cpu time spent up to now is        2.0 secs

     total energy              =      -1.71362426 Ry
     estimated scf accuracy    <       0.00026931 Ry

     iteration # 23     ecut=     5.00 Ry     beta= 0.70
     Davidson diagonalization with overlap

---- Real-time Memory Report at c_bands before calling an iterative solver
            55 MiB given to the printing process from OS
             0 MiB allocation reported by mallinfo(arena+hblkhd)
          1267 MiB available memory on the node where the printing process lives
------------------
     ethr =  1.55E-07,  avg # of iterations =  4.0

     negative rho (up, down):  4.135E-01 0.000E+00

     total cpu time spent up to now is        2.0 secs

     total energy              =      -1.70942176 Ry
     estimated scf accuracy    <       0.00036490 Ry

     iteration # 24     ecut=     5.00 Ry     beta= 0.70
     Davidson diagonalization with overlap

---- Real-time Memory Report at c_bands before calling an iterative solver
            55 MiB given to the printing process from OS
             0 MiB allocation reported by mallinfo(arena+hblkhd)
          1267 MiB available memory on the node where the printing process lives
------------------
     ethr =  1.55E-07,  avg # of iterations =  4.0

     negative rho (up, down):  4.144E-01 0.000E+00

     total cpu time spent up to now is        2.1 secs

     total energy              =      -1.71117639 Ry
     estimated scf accuracy    <       0.00013124 Ry

     iteration # 25     ecut=     5.00 Ry     beta= 0.70
     Davidson diagonalization with overlap

---- Real-time Memory Report at c_bands before calling an iterative solver
            55 MiB given to the printing process from OS
             0 MiB allocation reported by mallinfo(arena+hblkhd)
          1267 MiB available memory on the node where the printing process lives
------------------
     ethr =  1.55E-07,  avg # of iterations =  3.0

     negative rho (up, down):  4.075E-01 0.000E+00

     total cpu time spent up to now is        2.2 secs

     total energy              =      -1.71812716 Ry
     estimated scf accuracy    <       0.00016510 Ry

     iteration # 26     ecut=     5.00 Ry     beta= 0.70
     Davidson diagonalization with overlap

---- Real-time Memory Report at c_bands before calling an iterative solver
            55 MiB given to the printing process from OS
             0 MiB allocation reported by mallinfo(arena+hblkhd)
          1267 MiB available memory on the node where the printing process lives
------------------
     ethr =  1.55E-07,  avg # of iterations =  4.0

     negative rho (up, down):  4.078E-01 0.000E+00

     total cpu time spent up to now is        2.3 secs

     total energy              =      -1.71310347 Ry
     estimated scf accuracy    <       0.00124222 Ry

     iteration # 27     ecut=     5.00 Ry     beta= 0.70
     Davidson diagonalization with overlap

---- Real-time Memory Report at c_bands before calling an iterative solver
            55 MiB given to the printing process from OS
             0 MiB allocation reported by mallinfo(arena+hblkhd)
          1267 MiB available memory on the node where the printing process lives
------------------
     ethr =  1.55E-07,  avg # of iterations =  4.0

     negative rho (up, down):  4.085E-01 0.000E+00

     total cpu time spent up to now is        2.4 secs

     total energy              =      -1.71691619 Ry
     estimated scf accuracy    <       0.00045013 Ry

     iteration # 28     ecut=     5.00 Ry     beta= 0.70
     Davidson diagonalization with overlap

---- Real-time Memory Report at c_bands before calling an iterative solver
            55 MiB given to the printing process from OS
             0 MiB allocation reported by mallinfo(arena+hblkhd)
          1267 MiB available memory on the node where the printing process lives
------------------
     ethr =  1.55E-07,  avg # of iterations =  4.0

     negative rho (up, down):  4.099E-01 0.000E+00

     total cpu time spent up to now is        2.5 secs

     total energy              =      -1.71367075 Ry
     estimated scf accuracy    <       0.00074212 Ry

     iteration # 29     ecut=     5.00 Ry     beta= 0.70
     Davidson diagonalization with overlap

---- Real-time Memory Report at c_bands before calling an iterative solver
            55 MiB given to the printing process from OS
             0 MiB allocation reported by mallinfo(arena+hblkhd)
          1267 MiB available memory on the node where the printing process lives
------------------
     ethr =  1.55E-07,  avg # of iterations =  3.0

     negative rho (up, down):  4.097E-01 0.000E+00

     total cpu time spent up to now is        2.5 secs

     total energy              =      -1.71374632 Ry
     estimated scf accuracy    <       0.00047824 Ry

     iteration # 30     ecut=     5.00 Ry     beta= 0.70
     Davidson diagonalization with overlap

---- Real-time Memory Report at c_bands before calling an iterative solver
            55 MiB given to the printing process from OS
             0 MiB allocation reported by mallinfo(arena+hblkhd)
          1267 MiB available memory on the node where the printing process lives
------------------
     ethr =  1.55E-07,  avg # of iterations =  4.0

     negative rho (up, down):  4.185E-01 0.000E+00

     total cpu time spent up to now is        2.6 secs

     total energy              =      -1.71313061 Ry
     estimated scf accuracy    <       0.00032629 Ry

     iteration # 31     ecut=     5.00 Ry     beta= 0.70
     Davidson diagonalization with overlap

---- Real-time Memory Report at c_bands before calling an iterative solver
            55 MiB given to the printing process from OS
             0 MiB allocation reported by mallinfo(arena+hblkhd)
          1267 MiB available memory on the node where the printing process lives
------------------
     ethr =  1.55E-07,  avg # of iterations =  4.0

     negative rho (up, down):  4.176E-01 0.000E+00

     total cpu time spent up to now is        2.7 secs

     total energy              =      -1.71329213 Ry
     estimated scf accuracy    <       0.00033223 Ry

     iteration # 32     ecut=     5.00 Ry     beta= 0.70
     Davidson diagonalization with overlap

---- Real-time Memory Report at c_bands before calling an iterative solver
            55 MiB given to the printing process from OS
             0 MiB allocation reported by mallinfo(arena+hblkhd)
          1267 MiB available memory on the node where the printing process lives
------------------
     ethr =  1.55E-07,  avg # of iterations =  3.0

     negative rho (up, down):  4.194E-01 0.000E+00

     total cpu time spent up to now is        2.8 secs

     total energy              =      -1.71541042 Ry
     estimated scf accuracy    <       0.00023789 Ry

     iteration # 33     ecut=     5.00 Ry     beta= 0.70
     Davidson diagonalization with overlap

---- Real-time Memory Report at c_bands before calling an iterative solver
            55 MiB given to the printing process from OS
             0 MiB allocation reported by mallinfo(arena+hblkhd)
          1267 MiB available memory on the node where the printing process lives
------------------
     ethr =  1.55E-07,  avg # of iterations =  4.0

     negative rho (up, down):  4.098E-01 0.000E+00

     total cpu time spent up to now is        2.8 secs

     total energy              =      -1.71001779 Ry
     estimated scf accuracy    <       0.00042671 Ry

     iteration # 34     ecut=     5.00 Ry     beta= 0.70
     Davidson diagonalization with overlap

---- Real-time Memory Report at c_bands before calling an iterative solver
            55 MiB given to the printing process from OS
             0 MiB allocation reported by mallinfo(arena+hblkhd)
          1267 MiB available memory on the node where the printing process lives
------------------
     ethr =  1.55E-07,  avg # of iterations =  4.0

     negative rho (up, down):  4.090E-01 0.000E+00

     total cpu time spent up to now is        2.9 secs

     total energy              =      -1.71404182 Ry
     estimated scf accuracy    <       0.00036583 Ry

     iteration # 35     ecut=     5.00 Ry     beta= 0.70
     Davidson diagonalization with overlap

---- Real-time Memory Report at c_bands before calling an iterative solver
            55 MiB given to the printing process from OS
             0 MiB allocation reported by mallinfo(arena+hblkhd)
          1267 MiB available memory on the node where the printing process lives
------------------
     ethr =  1.55E-07,  avg # of iterations =  4.0

     negative rho (up, down):  4.058E-01 0.000E+00

     total cpu time spent up to now is        3.0 secs

     total energy              =      -1.71691620 Ry
     estimated scf accuracy    <       0.00062059 Ry

     iteration # 36     ecut=     5.00 Ry     beta= 0.70
     Davidson diagonalization with overlap

---- Real-time Memory Report at c_bands before calling an iterative solver
            55 MiB given to the printing process from OS
             0 MiB allocation reported by mallinfo(arena+hblkhd)
          1267 MiB available memory on the node where the printing process lives
------------------
     ethr =  1.55E-07,  avg # of iterations =  3.0

     negative rho (up, down):  4.064E-01 0.000E+00

     total cpu time spent up to now is        3.1 secs

     total energy              =      -1.71841428 Ry
     estimated scf accuracy    <       0.00119878 Ry

     iteration # 37     ecut=     5.00 Ry     beta= 0.70
     Davidson diagonalization with overlap

---- Real-time Memory Report at c_bands before calling an iterative solver
            55 MiB given to the printing process from OS
             0 MiB allocation reported by mallinfo(arena+hblkhd)
          1267 MiB available memory on the node where the printing process lives
------------------
     ethr =  1.55E-07,  avg # of iterations =  3.0

     negative rho (up, down):  4.260E-01 0.000E+00

     total cpu time spent up to now is        3.1 secs

     total energy              =      -1.70757046 Ry
     estimated scf accuracy    <       0.00131729 Ry

     iteration # 38     ecut=     5.00 Ry     beta= 0.70
     Davidson diagonalization with overlap

---- Real-time Memory Report at c_bands before calling an iterative solver
            55 MiB given to the printing process from OS
             0 MiB allocation reported by mallinfo(arena+hblkhd)
          1267 MiB available memory on the node where the printing process lives
------------------
     ethr =  1.55E-07,  avg # of iterations =  5.0

     negative rho (up, down):  4.244E-01 0.000E+00

     total cpu time spent up to now is        3.2 secs

     total energy              =      -1.71079845 Ry
     estimated scf accuracy    <       0.00020897 Ry

     iteration # 39     ecut=     5.00 Ry     beta= 0.70
     Davidson diagonalization with overlap

---- Real-time Memory Report at c_bands before calling an iterative solver
            55 MiB given to the printing process from OS
             0 MiB allocation reported by mallinfo(arena+hblkhd)
          1267 MiB available memory on the node where the printing process lives
------------------
     ethr =  1.55E-07,  avg # of iterations =  3.0

     negative rho (up, down):  4.220E-01 0.000E+00

     total cpu time spent up to now is        3.3 secs

     total energy              =      -1.71086390 Ry
     estimated scf accuracy    <       0.00011973 Ry

     iteration # 40     ecut=     5.00 Ry     beta= 0.70
     Davidson diagonalization with overlap

---- Real-time Memory Report at c_bands before calling an iterative solver
            55 MiB given to the printing process from OS
             0 MiB allocation reported by mallinfo(arena+hblkhd)
          1267 MiB available memory on the node where the printing process lives
------------------
     ethr =  1.55E-07,  avg # of iterations =  4.0

     negative rho (up, down):  4.235E-01 0.000E+00

     total cpu time spent up to now is        3.4 secs

     total energy              =      -1.71050328 Ry
     estimated scf accuracy    <       0.00000736 Ry

     iteration # 41     ecut=     5.00 Ry     beta= 0.70
     Davidson diagonalization with overlap

---- Real-time Memory Report at c_bands before calling an iterative solver
            55 MiB given to the printing process from OS
             0 MiB allocation reported by mallinfo(arena+hblkhd)
          1267 MiB available memory on the node where the printing process lives
------------------
     ethr =  1.55E-07,  avg # of iterations =  3.0

     negative rho (up, down):  4.241E-01 0.000E+00

     total cpu time spent up to now is        3.5 secs

     total energy              =      -1.71051183 Ry
     estimated scf accuracy    <       0.00005354 Ry

     iteration # 42     ecut=     5.00 Ry     beta= 0.70
     Davidson diagonalization with overlap

---- Real-time Memory Report at c_bands before calling an iterative solver
            55 MiB given to the printing process from OS
             0 MiB allocation reported by mallinfo(arena+hblkhd)
          1267 MiB available memory on the node where the printing process lives
------------------
     ethr =  1.55E-07,  avg # of iterations =  5.0

     negative rho (up, down):  4.194E-01 0.000E+00

     total cpu time spent up to now is        3.6 secs

     total energy              =      -1.70902536 Ry
     estimated scf accuracy    <       0.00014488 Ry

     iteration # 43     ecut=     5.00 Ry     beta= 0.70
     Davidson diagonalization with overlap

---- Real-time Memory Report at c_bands before calling an iterative solver
            55 MiB given to the printing process from OS
             0 MiB allocation reported by mallinfo(arena+hblkhd)
          1267 MiB available memory on the node where the printing process lives
------------------
     ethr =  1.55E-07,  avg # of iterations =  6.0

     negative rho (up, down):  4.224E-01 0.000E+00

     total cpu time spent up to now is        3.6 secs

     total energy              =      -1.70611575 Ry
     estimated scf accuracy    <       0.00046097 Ry

     iteration # 44     ecut=     5.00 Ry     beta= 0.70
     Davidson diagonalization with overlap

---- Real-time Memory Report at c_bands before calling an iterative solver
            55 MiB given to the printing process from OS
             0 MiB allocation reported by mallinfo(arena+hblkhd)
          1267 MiB available memory on the node where the printing process lives
------------------
     ethr =  1.55E-07,  avg # of iterations =  5.0

     negative rho (up, down):  4.220E-01 0.000E+00

     total cpu time spent up to now is        3.7 secs

     total energy              =      -1.71094724 Ry
     estimated scf accuracy    <       0.00004999 Ry

     iteration # 45     ecut=     5.00 Ry     beta= 0.70
     Davidson diagonalization with overlap

---- Real-time Memory Report at c_bands before calling an iterative solver
            55 MiB given to the printing process from OS
             0 MiB allocation reported by mallinfo(arena+hblkhd)
          1267 MiB available memory on the node where the printing process lives
------------------
     ethr =  1.55E-07,  avg # of iterations =  3.0

     negative rho (up, down):  4.211E-01 0.000E+00

     total cpu time spent up to now is        3.8 secs

     total energy              =      -1.71056969 Ry
     estimated scf accuracy    <       0.00002330 Ry

     iteration # 46     ecut=     5.00 Ry     beta= 0.70
     Davidson diagonalization with overlap

---- Real-time Memory Report at c_bands before calling an iterative solver
            55 MiB given to the printing process from OS
             0 MiB allocation reported by mallinfo(arena+hblkhd)
          1267 MiB available memory on the node where the printing process lives
------------------
     ethr =  1.55E-07,  avg # of iterations =  4.0

     negative rho (up, down):  4.207E-01 0.000E+00

     total cpu time spent up to now is        3.9 secs

     total energy              =      -1.71154709 Ry
     estimated scf accuracy    <       0.00001498 Ry

     iteration # 47     ecut=     5.00 Ry     beta= 0.70
     Davidson diagonalization with overlap

---- Real-time Memory Report at c_bands before calling an iterative solver
            55 MiB given to the printing process from OS
             0 MiB allocation reported by mallinfo(arena+hblkhd)
          1267 MiB available memory on the node where the printing process lives
------------------
     ethr =  1.55E-07,  avg # of iterations =  3.0

     negative rho (up, down):  4.206E-01 0.000E+00

     total cpu time spent up to now is        4.0 secs

     total energy              =      -1.71207699 Ry
     estimated scf accuracy    <       0.00006397 Ry

     iteration # 48     ecut=     5.00 Ry     beta= 0.70
     Davidson diagonalization with overlap

---- Real-time Memory Report at c_bands before calling an iterative solver
            55 MiB given to the printing process from OS
             0 MiB allocation reported by mallinfo(arena+hblkhd)
          1267 MiB available memory on the node where the printing process lives
------------------
     ethr =  1.55E-07,  avg # of iterations =  3.0

     negative rho (up, down):  4.203E-01 0.000E+00

     total cpu time spent up to now is        4.0 secs

     total energy              =      -1.71374059 Ry
     estimated scf accuracy    <       0.00012274 Ry

     iteration # 49     ecut=     5.00 Ry     beta= 0.70
     Davidson diagonalization with overlap

---- Real-time Memory Report at c_bands before calling an iterative solver
            55 MiB given to the printing process from OS
             0 MiB allocation reported by mallinfo(arena+hblkhd)
          1267 MiB available memory on the node where the printing process lives
------------------
     ethr =  1.55E-07,  avg # of iterations =  3.0

     negative rho (up, down):  4.189E-01 0.000E+00

     total cpu time spent up to now is        4.1 secs

     total energy              =      -1.71273753 Ry
     estimated scf accuracy    <       0.00026134 Ry

     iteration # 50     ecut=     5.00 Ry     beta= 0.70
     Davidson diagonalization with overlap

---- Real-time Memory Report at c_bands before calling an iterative solver
            55 MiB given to the printing process from OS
             0 MiB allocation reported by mallinfo(arena+hblkhd)
          1267 MiB available memory on the node where the printing process lives
------------------
     ethr =  1.55E-07,  avg # of iterations =  3.0

     negative rho (up, down):  4.203E-01 0.000E+00

     total cpu time spent up to now is        4.2 secs

     total energy              =      -1.71318856 Ry
     estimated scf accuracy    <       0.00023047 Ry

     iteration # 51     ecut=     5.00 Ry     beta= 0.70
     Davidson diagonalization with overlap

---- Real-time Memory Report at c_bands before calling an iterative solver
            55 MiB given to the printing process from OS
             0 MiB allocation reported by mallinfo(arena+hblkhd)
          1267 MiB available memory on the node where the printing process lives
------------------
     ethr =  1.55E-07,  avg # of iterations =  3.0

     negative rho (up, down):  4.222E-01 0.000E+00

     total cpu time spent up to now is        4.3 secs

     total energy              =      -1.70835911 Ry
     estimated scf accuracy    <       0.00020850 Ry

     iteration # 52     ecut=     5.00 Ry     beta= 0.70
     Davidson diagonalization with overlap

---- Real-time Memory Report at c_bands before calling an iterative solver
            55 MiB given to the printing process from OS
             0 MiB allocation reported by mallinfo(arena+hblkhd)
          1267 MiB available memory on the node where the printing process lives
------------------
     ethr =  1.55E-07,  avg # of iterations =  4.0

     negative rho (up, down):  4.219E-01 0.000E+00

     total cpu time spent up to now is        4.4 secs

     total energy              =      -1.71100847 Ry
     estimated scf accuracy    <       0.00004441 Ry

     iteration # 53     ecut=     5.00 Ry     beta= 0.70
     Davidson diagonalization with overlap

---- Real-time Memory Report at c_bands before calling an iterative solver
            55 MiB given to the printing process from OS
             0 MiB allocation reported by mallinfo(arena+hblkhd)
          1267 MiB available memory on the node where the printing process lives
------------------
     ethr =  1.55E-07,  avg # of iterations =  3.0

     negative rho (up, down):  4.219E-01 0.000E+00

     total cpu time spent up to now is        4.4 secs

     total energy              =      -1.71122363 Ry
     estimated scf accuracy    <       0.00000881 Ry

     iteration # 54     ecut=     5.00 Ry     beta= 0.70
     Davidson diagonalization with overlap

---- Real-time Memory Report at c_bands before calling an iterative solver
            55 MiB given to the printing process from OS
             0 MiB allocation reported by mallinfo(arena+hblkhd)
          1267 MiB available memory on the node where the printing process lives
------------------
     ethr =  1.55E-07,  avg # of iterations =  3.0

     negative rho (up, down):  4.219E-01 0.000E+00

     total cpu time spent up to now is        4.5 secs

     total energy              =      -1.71098737 Ry
     estimated scf accuracy    <       0.00001540 Ry

     iteration # 55     ecut=     5.00 Ry     beta= 0.70
     Davidson diagonalization with overlap

---- Real-time Memory Report at c_bands before calling an iterative solver
            55 MiB given to the printing process from OS
             0 MiB allocation reported by mallinfo(arena+hblkhd)
          1267 MiB available memory on the node where the printing process lives
------------------
     ethr =  1.55E-07,  avg # of iterations =  3.0

     negative rho (up, down):  4.218E-01 0.000E+00

     total cpu time spent up to now is        4.6 secs

     total energy              =      -1.71113222 Ry
     estimated scf accuracy    <       0.00000989 Ry

     iteration # 56     ecut=     5.00 Ry     beta= 0.70
     Davidson diagonalization with overlap

---- Real-time Memory Report at c_bands before calling an iterative solver
            55 MiB given to the printing process from OS
             0 MiB allocation reported by mallinfo(arena+hblkhd)
          1267 MiB available memory on the node where the printing process lives
------------------
     ethr =  1.55E-07,  avg # of iterations =  3.0

     negative rho (up, down):  4.217E-01 0.000E+00

     total cpu time spent up to now is        4.7 secs

     total energy              =      -1.71137508 Ry
     estimated scf accuracy    <       0.00001429 Ry

     iteration # 57     ecut=     5.00 Ry     beta= 0.70
     Davidson diagonalization with overlap

---- Real-time Memory Report at c_bands before calling an iterative solver
            55 MiB given to the printing process from OS
             0 MiB allocation reported by mallinfo(arena+hblkhd)
          1267 MiB available memory on the node where the printing process lives
------------------
     ethr =  1.55E-07,  avg # of iterations =  3.0

     negative rho (up, down):  4.221E-01 0.000E+00

     total cpu time spent up to now is        4.7 secs

     total energy              =      -1.71130470 Ry
     estimated scf accuracy    <       0.00001945 Ry

     iteration # 58     ecut=     5.00 Ry     beta= 0.70
     Davidson diagonalization with overlap

---- Real-time Memory Report at c_bands before calling an iterative solver
            55 MiB given to the printing process from OS
             0 MiB allocation reported by mallinfo(arena+hblkhd)
          1267 MiB available memory on the node where the printing process lives
------------------
     ethr =  1.55E-07,  avg # of iterations =  3.0

     negative rho (up, down):  4.215E-01 0.000E+00

     total cpu time spent up to now is        4.8 secs

     total energy              =      -1.71021362 Ry
     estimated scf accuracy    <       0.00004426 Ry

     iteration # 59     ecut=     5.00 Ry     beta= 0.70
     Davidson diagonalization with overlap

---- Real-time Memory Report at c_bands before calling an iterative solver
            55 MiB given to the printing process from OS
             0 MiB allocation reported by mallinfo(arena+hblkhd)
          1267 MiB available memory on the node where the printing process lives
------------------
     ethr =  1.55E-07,  avg # of iterations =  4.0

     negative rho (up, down):  4.225E-01 0.000E+00

     total cpu time spent up to now is        4.9 secs

     total energy              =      -1.71019155 Ry
     estimated scf accuracy    <       0.00003520 Ry

     iteration # 60     ecut=     5.00 Ry     beta= 0.70
     Davidson diagonalization with overlap

---- Real-time Memory Report at c_bands before calling an iterative solver
            55 MiB given to the printing process from OS
             0 MiB allocation reported by mallinfo(arena+hblkhd)
          1267 MiB available memory on the node where the printing process lives
------------------
     ethr =  1.55E-07,  avg # of iterations =  4.0

     negative rho (up, down):  4.218E-01 0.000E+00

     total cpu time spent up to now is        5.0 secs

     total energy              =      -1.71048348 Ry
     estimated scf accuracy    <       0.00006067 Ry

     iteration # 61     ecut=     5.00 Ry     beta= 0.70
     Davidson diagonalization with overlap

---- Real-time Memory Report at c_bands before calling an iterative solver
            55 MiB given to the printing process from OS
             0 MiB allocation reported by mallinfo(arena+hblkhd)
          1267 MiB available memory on the node where the printing process lives
------------------
     ethr =  1.55E-07,  avg # of iterations =  4.0

     negative rho (up, down):  4.214E-01 0.000E+00

     total cpu time spent up to now is        5.0 secs

     total energy              =      -1.71090986 Ry
     estimated scf accuracy    <       0.00000314 Ry

     iteration # 62     ecut=     5.00 Ry     beta= 0.70
     Davidson diagonalization with overlap

---- Real-time Memory Report at c_bands before calling an iterative solver
            55 MiB given to the printing process from OS
             0 MiB allocation reported by mallinfo(arena+hblkhd)
          1267 MiB available memory on the node where the printing process lives
------------------
     ethr =  1.55E-07,  avg # of iterations =  3.0

     negative rho (up, down):  4.214E-01 0.000E+00

     total cpu time spent up to now is        5.1 secs

     total energy              =      -1.71094160 Ry
     estimated scf accuracy    <       0.00000087 Ry

     iteration # 63     ecut=     5.00 Ry     beta= 0.70
     Davidson diagonalization with overlap

---- Real-time Memory Report at c_bands before calling an iterative solver
            55 MiB given to the printing process from OS
             0 MiB allocation reported by mallinfo(arena+hblkhd)
          1267 MiB available memory on the node where the printing process lives
------------------
     ethr =  4.37E-08,  avg # of iterations =  1.0

     negative rho (up, down):  4.217E-01 0.000E+00

     total cpu time spent up to now is        5.2 secs

     total energy              =      -1.71109530 Ry
     estimated scf accuracy    <       0.00000102 Ry

     iteration # 64     ecut=     5.00 Ry     beta= 0.70
     Davidson diagonalization with overlap

---- Real-time Memory Report at c_bands before calling an iterative solver
            55 MiB given to the printing process from OS
             0 MiB allocation reported by mallinfo(arena+hblkhd)
          1267 MiB available memory on the node where the printing process lives
------------------
     ethr =  4.37E-08,  avg # of iterations =  4.0

     negative rho (up, down):  4.218E-01 0.000E+00

     total cpu time spent up to now is        5.3 secs

     total energy              =      -1.71110468 Ry
     estimated scf accuracy    <       0.00003214 Ry

     iteration # 65     ecut=     5.00 Ry     beta= 0.70
     Davidson diagonalization with overlap

---- Real-time Memory Report at c_bands before calling an iterative solver
            55 MiB given to the printing process from OS
             0 MiB allocation reported by mallinfo(arena+hblkhd)
          1267 MiB available memory on the node where the printing process lives
------------------
     ethr =  4.37E-08,  avg # of iterations =  4.0

     negative rho (up, down):  4.216E-01 0.000E+00

     total cpu time spent up to now is        5.4 secs

     total energy              =      -1.71120660 Ry
     estimated scf accuracy    <       0.00001723 Ry

     iteration # 66     ecut=     5.00 Ry     beta= 0.70
     Davidson diagonalization with overlap

---- Real-time Memory Report at c_bands before calling an iterative solver
            55 MiB given to the printing process from OS
             0 MiB allocation reported by mallinfo(arena+hblkhd)
          1267 MiB available memory on the node where the printing process lives
------------------
     ethr =  4.37E-08,  avg # of iterations =  3.0

     negative rho (up, down):  4.216E-01 0.000E+00

     total cpu time spent up to now is        5.4 secs

     total energy              =      -1.71125393 Ry
     estimated scf accuracy    <       0.00000674 Ry

     iteration # 67     ecut=     5.00 Ry     beta= 0.70
     Davidson diagonalization with overlap

---- Real-time Memory Report at c_bands before calling an iterative solver
            55 MiB given to the printing process from OS
             0 MiB allocation reported by mallinfo(arena+hblkhd)
          1267 MiB available memory on the node where the printing process lives
------------------
     ethr =  4.37E-08,  avg # of iterations =  2.0

     negative rho (up, down):  4.216E-01 0.000E+00

     total cpu time spent up to now is        5.5 secs

     total energy              =      -1.71125452 Ry
     estimated scf accuracy    <       0.00000626 Ry

     iteration # 68     ecut=     5.00 Ry     beta= 0.70
     Davidson diagonalization with overlap

---- Real-time Memory Report at c_bands before calling an iterative solver
            55 MiB given to the printing process from OS
             0 MiB allocation reported by mallinfo(arena+hblkhd)
          1267 MiB available memory on the node where the printing process lives
------------------
     ethr =  4.37E-08,  avg # of iterations =  1.0

     negative rho (up, down):  4.216E-01 0.000E+00

     total cpu time spent up to now is        5.6 secs

     total energy              =      -1.71127471 Ry
     estimated scf accuracy    <       0.00000642 Ry

     iteration # 69     ecut=     5.00 Ry     beta= 0.70
     Davidson diagonalization with overlap

---- Real-time Memory Report at c_bands before calling an iterative solver
            55 MiB given to the printing process from OS
             0 MiB allocation reported by mallinfo(arena+hblkhd)
          1267 MiB available memory on the node where the printing process lives
------------------
     ethr =  4.37E-08,  avg # of iterations =  2.0

     negative rho (up, down):  4.216E-01 0.000E+00

     total cpu time spent up to now is        5.6 secs

     total energy              =      -1.71054349 Ry
     estimated scf accuracy    <       0.00000692 Ry

     iteration # 70     ecut=     5.00 Ry     beta= 0.70
     Davidson diagonalization with overlap

---- Real-time Memory Report at c_bands before calling an iterative solver
            55 MiB given to the printing process from OS
             0 MiB allocation reported by mallinfo(arena+hblkhd)
          1267 MiB available memory on the node where the printing process lives
------------------
     ethr =  4.37E-08,  avg # of iterations =  4.0

     negative rho (up, down):  4.213E-01 0.000E+00

     total cpu time spent up to now is        5.7 secs

     total energy              =      -1.71085813 Ry
     estimated scf accuracy    <       0.00000789 Ry

     iteration # 71     ecut=     5.00 Ry     beta= 0.70
     Davidson diagonalization with overlap

---- Real-time Memory Report at c_bands before calling an iterative solver
            55 MiB given to the printing process from OS
             0 MiB allocation reported by mallinfo(arena+hblkhd)
          1267 MiB available memory on the node where the printing process lives
------------------
     ethr =  4.37E-08,  avg # of iterations =  4.0

     negative rho (up, down):  4.220E-01 0.000E+00

     total cpu time spent up to now is        5.8 secs

     total energy              =      -1.71122746 Ry
     estimated scf accuracy    <       0.00000146 Ry

     iteration # 72     ecut=     5.00 Ry     beta= 0.70
     Davidson diagonalization with overlap

---- Real-time Memory Report at c_bands before calling an iterative solver
            55 MiB given to the printing process from OS
             0 MiB allocation reported by mallinfo(arena+hblkhd)
          1267 MiB available memory on the node where the printing process lives
------------------
     ethr =  4.37E-08,  avg # of iterations =  4.0

     negative rho (up, down):  4.212E-01 0.000E+00

     total cpu time spent up to now is        5.9 secs

     total energy              =      -1.71098036 Ry
     estimated scf accuracy    <       0.00002987 Ry

     iteration # 73     ecut=     5.00 Ry     beta= 0.70
     Davidson diagonalization with overlap

---- Real-time Memory Report at c_bands before calling an iterative solver
            55 MiB given to the printing process from OS
             0 MiB allocation reported by mallinfo(arena+hblkhd)
          1267 MiB available memory on the node where the printing process lives
------------------
     ethr =  4.37E-08,  avg # of iterations =  4.0

     negative rho (up, down):  4.210E-01 0.000E+00

     total cpu time spent up to now is        5.9 secs

     total energy              =      -1.71130570 Ry
     estimated scf accuracy    <       0.00001042 Ry

     iteration # 74     ecut=     5.00 Ry     beta= 0.70
     Davidson diagonalization with overlap

---- Real-time Memory Report at c_bands before calling an iterative solver
            55 MiB given to the printing process from OS
             0 MiB allocation reported by mallinfo(arena+hblkhd)
          1267 MiB available memory on the node where the printing process lives
------------------
     ethr =  4.37E-08,  avg # of iterations =  4.0

     negative rho (up, down):  4.211E-01 0.000E+00

     total cpu time spent up to now is        6.0 secs

     total energy              =      -1.71056620 Ry
     estimated scf accuracy    <       0.00001571 Ry

     iteration # 75     ecut=     5.00 Ry     beta= 0.70
     Davidson diagonalization with overlap

---- Real-time Memory Report at c_bands before calling an iterative solver
            55 MiB given to the printing process from OS
             0 MiB allocation reported by mallinfo(arena+hblkhd)
          1267 MiB available memory on the node where the printing process lives
------------------
     ethr =  4.37E-08,  avg # of iterations =  4.0

     negative rho (up, down):  4.213E-01 0.000E+00

     total cpu time spent up to now is        6.1 secs

     total energy              =      -1.71095403 Ry
     estimated scf accuracy    <       0.00000325 Ry

     iteration # 76     ecut=     5.00 Ry     beta= 0.70
     Davidson diagonalization with overlap

---- Real-time Memory Report at c_bands before calling an iterative solver
            55 MiB given to the printing process from OS
             0 MiB allocation reported by mallinfo(arena+hblkhd)
          1267 MiB available memory on the node where the printing process lives
------------------
     ethr =  4.37E-08,  avg # of iterations =  2.0

     negative rho (up, down):  4.213E-01 0.000E+00

     total cpu time spent up to now is        6.2 secs

     total energy              =      -1.71114904 Ry
     estimated scf accuracy    <       0.00000156 Ry

     iteration # 77     ecut=     5.00 Ry     beta= 0.70
     Davidson diagonalization with overlap

---- Real-time Memory Report at c_bands before calling an iterative solver
            55 MiB given to the printing process from OS
             0 MiB allocation reported by mallinfo(arena+hblkhd)
          1267 MiB available memory on the node where the printing process lives
------------------
     ethr =  4.37E-08,  avg # of iterations =  3.0

     negative rho (up, down):  4.215E-01 0.000E+00

     total cpu time spent up to now is        6.3 secs

     total energy              =      -1.71102298 Ry
     estimated scf accuracy    <       0.00000244 Ry

     iteration # 78     ecut=     5.00 Ry     beta= 0.70
     Davidson diagonalization with overlap

---- Real-time Memory Report at c_bands before calling an iterative solver
            55 MiB given to the printing process from OS
             0 MiB allocation reported by mallinfo(arena+hblkhd)
          1267 MiB available memory on the node where the printing process lives
------------------
     ethr =  4.37E-08,  avg # of iterations =  3.0

     negative rho (up, down):  4.216E-01 0.000E+00

     total cpu time spent up to now is        6.3 secs

     total energy              =      -1.71106074 Ry
     estimated scf accuracy    <       0.00000031 Ry

     iteration # 79     ecut=     5.00 Ry     beta= 0.70
     Davidson diagonalization with overlap

---- Real-time Memory Report at c_bands before calling an iterative solver
            55 MiB given to the printing process from OS
             0 MiB allocation reported by mallinfo(arena+hblkhd)
          1267 MiB available memory on the node where the printing process lives
------------------
     ethr =  1.55E-08,  avg # of iterations =  3.0

     negative rho (up, down):  4.216E-01 0.000E+00

     total cpu time spent up to now is        6.4 secs

     total energy              =      -1.71108318 Ry
     estimated scf accuracy    <       0.00000124 Ry

     iteration # 80     ecut=     5.00 Ry     beta= 0.70
     Davidson diagonalization with overlap

---- Real-time Memory Report at c_bands before calling an iterative solver
            55 MiB given to the printing process from OS
             0 MiB allocation reported by mallinfo(arena+hblkhd)
          1267 MiB available memory on the node where the printing process lives
------------------
     ethr =  1.55E-08,  avg # of iterations =  3.0

     negative rho (up, down):  4.216E-01 0.000E+00

     total cpu time spent up to now is        6.5 secs

     total energy              =      -1.71108649 Ry
     estimated scf accuracy    <       0.00000248 Ry

     iteration # 81     ecut=     5.00 Ry     beta= 0.70
     Davidson diagonalization with overlap

---- Real-time Memory Report at c_bands before calling an iterative solver
            55 MiB given to the printing process from OS
             0 MiB allocation reported by mallinfo(arena+hblkhd)
          1267 MiB available memory on the node where the printing process lives
------------------
     ethr =  1.55E-08,  avg # of iterations =  2.0

     negative rho (up, down):  4.216E-01 0.000E+00

     total cpu time spent up to now is        6.6 secs

     total energy              =      -1.71109516 Ry
     estimated scf accuracy    <       0.00000195 Ry

     iteration # 82     ecut=     5.00 Ry     beta= 0.70
     Davidson diagonalization with overlap

---- Real-time Memory Report at c_bands before calling an iterative solver
            55 MiB given to the printing process from OS
             0 MiB allocation reported by mallinfo(arena+hblkhd)
          1267 MiB available memory on the node where the printing process lives
------------------
     ethr =  1.55E-08,  avg # of iterations =  4.0

     negative rho (up, down):  4.216E-01 0.000E+00

     total cpu time spent up to now is        6.6 secs

     total energy              =      -1.71091602 Ry
     estimated scf accuracy    <       0.00000743 Ry

     iteration # 83     ecut=     5.00 Ry     beta= 0.70
     Davidson diagonalization with overlap

---- Real-time Memory Report at c_bands before calling an iterative solver
            55 MiB given to the printing process from OS
             0 MiB allocation reported by mallinfo(arena+hblkhd)
          1267 MiB available memory on the node where the printing process lives
------------------
     ethr =  1.55E-08,  avg # of iterations =  4.0

     negative rho (up, down):  4.217E-01 0.000E+00

     total cpu time spent up to now is        6.7 secs

     total energy              =      -1.71104312 Ry
     estimated scf accuracy    <       0.00000011 Ry

     iteration # 84     ecut=     5.00 Ry     beta= 0.70
     Davidson diagonalization with overlap

---- Real-time Memory Report at c_bands before calling an iterative solver
            55 MiB given to the printing process from OS
             0 MiB allocation reported by mallinfo(arena+hblkhd)
          1267 MiB available memory on the node where the printing process lives
------------------
     ethr =  5.40E-09,  avg # of iterations =  3.0

     negative rho (up, down):  4.217E-01 0.000E+00

     total cpu time spent up to now is        6.8 secs

     total energy              =      -1.71104074 Ry
     estimated scf accuracy    <       0.00000014 Ry

     iteration # 85     ecut=     5.00 Ry     beta= 0.70
     Davidson diagonalization with overlap

---- Real-time Memory Report at c_bands before calling an iterative solver
            55 MiB given to the printing process from OS
             0 MiB allocation reported by mallinfo(arena+hblkhd)
          1267 MiB available memory on the node where the printing process lives
------------------
     ethr =  5.40E-09,  avg # of iterations =  3.0

     negative rho (up, down):  4.216E-01 0.000E+00

     total cpu time spent up to now is        6.8 secs

     total energy              =      -1.71109052 Ry
     estimated scf accuracy    <       0.00000010 Ry

     iteration # 86     ecut=     5.00 Ry     beta= 0.70
     Davidson diagonalization with overlap

---- Real-time Memory Report at c_bands before calling an iterative solver
            55 MiB given to the printing process from OS
             0 MiB allocation reported by mallinfo(arena+hblkhd)
          1267 MiB available memory on the node where the printing process lives
------------------
     ethr =  4.75E-09,  avg # of iterations =  4.0

     negative rho (up, down):  4.216E-01 0.000E+00

     total cpu time spent up to now is        6.9 secs

     total energy              =      -1.71108125 Ry
     estimated scf accuracy    <       0.00000173 Ry

     iteration # 87     ecut=     5.00 Ry     beta= 0.70
     Davidson diagonalization with overlap

---- Real-time Memory Report at c_bands before calling an iterative solver
            55 MiB given to the printing process from OS
             0 MiB allocation reported by mallinfo(arena+hblkhd)
          1267 MiB available memory on the node where the printing process lives
------------------
     ethr =  4.75E-09,  avg # of iterations =  4.0

     negative rho (up, down):  4.216E-01 0.000E+00

     total cpu time spent up to now is        7.0 secs

     total energy              =      -1.71111144 Ry
     estimated scf accuracy    <       0.00000059 Ry

     iteration # 88     ecut=     5.00 Ry     beta= 0.70
     Davidson diagonalization with overlap

---- Real-time Memory Report at c_bands before calling an iterative solver
            55 MiB given to the printing process from OS
             0 MiB allocation reported by mallinfo(arena+hblkhd)
          1267 MiB available memory on the node where the printing process lives
------------------
     ethr =  4.75E-09,  avg # of iterations =  3.0

     negative rho (up, down):  4.216E-01 0.000E+00

     total cpu time spent up to now is        7.1 secs

     total energy              =      -1.71112400 Ry
     estimated scf accuracy    <       0.00000124 Ry

     iteration # 89     ecut=     5.00 Ry     beta= 0.70
     Davidson diagonalization with overlap

---- Real-time Memory Report at c_bands before calling an iterative solver
            55 MiB given to the printing process from OS
             0 MiB allocation reported by mallinfo(arena+hblkhd)
          1267 MiB available memory on the node where the printing process lives
------------------
     ethr =  4.75E-09,  avg # of iterations =  2.0

     negative rho (up, down):  4.219E-01 0.000E+00

     total cpu time spent up to now is        7.1 secs

     total energy              =      -1.71095785 Ry
     estimated scf accuracy    <       0.00000139 Ry

     iteration # 90     ecut=     5.00 Ry     beta= 0.70
     Davidson diagonalization with overlap

---- Real-time Memory Report at c_bands before calling an iterative solver
            55 MiB given to the printing process from OS
             0 MiB allocation reported by mallinfo(arena+hblkhd)
          1267 MiB available memory on the node where the printing process lives
------------------
     ethr =  4.75E-09,  avg # of iterations =  4.0

     negative rho (up, down):  4.212E-01 0.000E+00

     total cpu time spent up to now is        7.2 secs

     total energy              =      -1.71109869 Ry
     estimated scf accuracy    <       0.00000024 Ry

     iteration # 91     ecut=     5.00 Ry     beta= 0.70
     Davidson diagonalization with overlap

---- Real-time Memory Report at c_bands before calling an iterative solver
            55 MiB given to the printing process from OS
             0 MiB allocation reported by mallinfo(arena+hblkhd)
          1267 MiB available memory on the node where the printing process lives
------------------
     ethr =  4.75E-09,  avg # of iterations =  4.0

     negative rho (up, down):  4.211E-01 0.000E+00

     total cpu time spent up to now is        7.3 secs

     total energy              =      -1.71115847 Ry
     estimated scf accuracy    <       0.00000157 Ry

     iteration # 92     ecut=     5.00 Ry     beta= 0.70
     Davidson diagonalization with overlap

---- Real-time Memory Report at c_bands before calling an iterative solver
            55 MiB given to the printing process from OS
             0 MiB allocation reported by mallinfo(arena+hblkhd)
          1267 MiB available memory on the node where the printing process lives
------------------
     ethr =  4.75E-09,  avg # of iterations =  3.0

     negative rho (up, down):  4.212E-01 0.000E+00

     total cpu time spent up to now is        7.4 secs

     total energy              =      -1.71114222 Ry
     estimated scf accuracy    <       0.00000142 Ry

     iteration # 93     ecut=     5.00 Ry     beta= 0.70
     Davidson diagonalization with overlap

---- Real-time Memory Report at c_bands before calling an iterative solver
            55 MiB given to the printing process from OS
             0 MiB allocation reported by mallinfo(arena+hblkhd)
          1267 MiB available memory on the node where the printing process lives
------------------
     ethr =  4.75E-09,  avg # of iterations =  2.0

     negative rho (up, down):  4.213E-01 0.000E+00

     total cpu time spent up to now is        7.4 secs

     total energy              =      -1.71111529 Ry
     estimated scf accuracy    <       0.00000102 Ry

     iteration # 94     ecut=     5.00 Ry     beta= 0.70
     Davidson diagonalization with overlap

---- Real-time Memory Report at c_bands before calling an iterative solver
            55 MiB given to the printing process from OS
             0 MiB allocation reported by mallinfo(arena+hblkhd)
          1267 MiB available memory on the node where the printing process lives
------------------
     ethr =  4.75E-09,  avg # of iterations =  2.0

     negative rho (up, down):  4.215E-01 0.000E+00

     total cpu time spent up to now is        7.5 secs

     total energy              =      -1.71106866 Ry
     estimated scf accuracy    <       0.00000055 Ry

     iteration # 95     ecut=     5.00 Ry     beta= 0.70
     Davidson diagonalization with overlap

---- Real-time Memory Report at c_bands before calling an iterative solver
            55 MiB given to the printing process from OS
             0 MiB allocation reported by mallinfo(arena+hblkhd)
          1267 MiB available memory on the node where the printing process lives
------------------
     ethr =  4.75E-09,  avg # of iterations =  3.0

     negative rho (up, down):  4.215E-01 0.000E+00

     total cpu time spent up to now is        7.6 secs

     total energy              =      -1.71108274 Ry
     estimated scf accuracy    <       0.00000026 Ry

     iteration # 96     ecut=     5.00 Ry     beta= 0.70
     Davidson diagonalization with overlap

---- Real-time Memory Report at c_bands before calling an iterative solver
            55 MiB given to the printing process from OS
             0 MiB allocation reported by mallinfo(arena+hblkhd)
          1267 MiB available memory on the node where the printing process lives
------------------
     ethr =  4.75E-09,  avg # of iterations =  2.0

     negative rho (up, down):  4.217E-01 0.000E+00

     total cpu time spent up to now is        7.7 secs

     total energy              =      -1.71104355 Ry
     estimated scf accuracy    <       0.00000029 Ry

     iteration # 97     ecut=     5.00 Ry     beta= 0.70
     Davidson diagonalization with overlap

---- Real-time Memory Report at c_bands before calling an iterative solver
            55 MiB given to the printing process from OS
             0 MiB allocation reported by mallinfo(arena+hblkhd)
          1267 MiB available memory on the node where the printing process lives
------------------
     ethr =  4.75E-09,  avg # of iterations =  3.0

     negative rho (up, down):  4.217E-01 0.000E+00

     total cpu time spent up to now is        7.7 secs

     total energy              =      -1.71103455 Ry
     estimated scf accuracy    <       0.00000019 Ry

     iteration # 98     ecut=     5.00 Ry     beta= 0.70
     Davidson diagonalization with overlap

---- Real-time Memory Report at c_bands before calling an iterative solver
            55 MiB given to the printing process from OS
             0 MiB allocation reported by mallinfo(arena+hblkhd)
          1267 MiB available memory on the node where the printing process lives
------------------
     ethr =  4.75E-09,  avg # of iterations =  3.0

     negative rho (up, down):  4.219E-01 0.000E+00

     total cpu time spent up to now is        7.8 secs

     total energy              =      -1.71098583 Ry
     estimated scf accuracy    <       0.00000021 Ry

     iteration # 99     ecut=     5.00 Ry     beta= 0.70
     Davidson diagonalization with overlap

---- Real-time Memory Report at c_bands before calling an iterative solver
            55 MiB given to the printing process from OS
             0 MiB allocation reported by mallinfo(arena+hblkhd)
          1267 MiB available memory on the node where the printing process lives
------------------
     ethr =  4.75E-09,  avg # of iterations =  4.0

     negative rho (up, down):  4.220E-01 0.000E+00

     total cpu time spent up to now is        7.9 secs

     total energy              =      -1.71099557 Ry
     estimated scf accuracy    <       0.00000062 Ry

     iteration #100     ecut=     5.00 Ry     beta= 0.70
     Davidson diagonalization with overlap

---- Real-time Memory Report at c_bands before calling an iterative solver
            55 MiB given to the printing process from OS
             0 MiB allocation reported by mallinfo(arena+hblkhd)
          1267 MiB available memory on the node where the printing process lives
------------------
     ethr =  4.75E-09,  avg # of iterations =  3.0

     negative rho (up, down):  4.220E-01 0.000E+00

     total cpu time spent up to now is        8.0 secs

     total energy              =      -1.71100252 Ry
     estimated scf accuracy    <       0.00000058 Ry

     End of self-consistent calculation

     convergence NOT achieved after 100 iterations: stopping

     Writing config to output data dir ./.save/
     Message from routine punch:
     wavefunctions written to file

     init_run     :      0.09s CPU      0.10s WALL (       1 calls)
     electrons    :      7.81s CPU      7.85s WALL (       1 calls)

     Called by init_run:
     wfcinit      :      0.01s CPU      0.01s WALL (       1 calls)
     wfcinit:atom :      0.00s CPU      0.00s WALL (       1 calls)
     wfcinit:wfcr :      0.00s CPU      0.00s WALL (       1 calls)
     potinit      :      0.05s CPU      0.06s WALL (       1 calls)
     hinit0       :      0.01s CPU      0.01s WALL (       1 calls)

     Called by electrons:
     c_bands      :      1.90s CPU      1.90s WALL (     100 calls)
     sum_band     :      0.78s CPU      0.80s WALL (     100 calls)
     v_of_rho     :      4.00s CPU      4.02s WALL (     101 calls)
     v_h          :      0.20s CPU      0.20s WALL (     101 calls)
     v_xc         :      3.80s CPU      3.82s WALL (     101 calls)
     newd         :      0.25s CPU      0.25s WALL (     101 calls)
     mix_rho      :      0.85s CPU      0.85s WALL (     100 calls)

     Called by c_bands:
     init_us_2    :      0.03s CPU      0.03s WALL (     201 calls)
     init_us_2:cp :      0.03s CPU      0.03s WALL (     201 calls)
     cegterg      :      1.88s CPU      1.88s WALL (     100 calls)

     Called by sum_band:
     sum_band:wei :      0.00s CPU      0.00s WALL (     100 calls)
     sum_band:loo :      0.23s CPU      0.23s WALL (     100 calls)
     sum_band:buf :      0.00s CPU      0.00s WALL (     100 calls)
     sum_band:ini :      0.01s CPU      0.01s WALL (     100 calls)
     sum_band:cal :      0.00s CPU      0.00s WALL (     100 calls)
     sum_band:bec :      0.00s CPU      0.00s WALL (     100 calls)
     addusdens    :      0.07s CPU      0.07s WALL (     100 calls)
     addusd:skk   :      0.02s CPU      0.03s WALL (     100 calls)
     addusd:dgemm :      0.02s CPU      0.02s WALL (     100 calls)
     addusd:qvan2 :      0.02s CPU      0.02s WALL (     100 calls)

     Called by *egterg:
     cdiaghg      :      0.01s CPU      0.01s WALL (     487 calls)
     cegterg:over :      0.03s CPU      0.03s WALL (     387 calls)
     cegterg:upda :      0.02s CPU      0.02s WALL (     387 calls)
     cegterg:last :      0.04s CPU      0.04s WALL (     326 calls)
     h_psi        :      1.74s CPU      1.75s WALL (     488 calls)
     s_psi        :      0.01s CPU      0.01s WALL (     488 calls)
     g_psi        :      0.01s CPU      0.01s WALL (     387 calls)

     Called by h_psi:
     h_psi:calbec :      0.01s CPU      0.01s WALL (     488 calls)
     vloc_psi     :      1.71s CPU      1.71s WALL (     488 calls)
     add_vuspsi   :      0.01s CPU      0.01s WALL (     488 calls)

     General routines
     calbec       :      0.01s CPU      0.01s WALL (     588 calls)
     fft          :      1.74s CPU      1.75s WALL (    1111 calls)
     ffts         :      0.15s CPU      0.15s WALL (     100 calls)
     fftw         :      1.77s CPU      1.78s WALL (    1792 calls)
     davcio       :      0.00s CPU      0.00s WALL (      19 calls)


     PWSCF        :      7.92s CPU      7.97s WALL


   This run was terminated on:  22:14:13  28Feb2022            

=------------------------------------------------------------------------------=
   JOB DONE.
=------------------------------------------------------------------------------=
