
     Program PWSCF v.7.0 starts on 28Feb2022 at 22:13:51 

     This program is part of the open-source Quantum ESPRESSO suite
     for quantum simulation of materials; please cite
         "P. Giannozzi et al., J. Phys.:Condens. Matter 21 395502 (2009);
         "P. Giannozzi et al., J. Phys.:Condens. Matter 29 465901 (2017);
         "P. Giannozzi et al., J. Chem. Phys. 152 154105 (2020);
          URL http://www.quantum-espresso.org", 
     in publications or presentations arising from this work. More details at
     http://www.quantum-espresso.org/quote

     Serial version
     1293 MiB available memory on the printing compute node when the environment starts

     Waiting for input...
     Reading input from standard input

     Current dimensions of program PWSCF are:
     Max number of different atomic species (ntypx) = 10
     Max number of k-points (npk) =  40000
     Max angular momentum in pseudopotentials (lmaxx) =  4

    ============================================================
    |  pseudopotential report for atomic species:  1           |
    |        pseudo potential version   7   3   2              |
    ------------------------------------------------------------
    |  hydrogen            PBE                  exchange-corr  |
    |  z =   1.    zv( 1) =   1.    exfact =   5.00000         |
    |  ifpcor =  0           atomic energy =  -0.91772 Ry      |
    |  index    orbital      occupation    energy              |
    |    1        100           1.00       -0.48               |
    |  rinner =  0.5000                                        |
    |    new generation scheme:                                |
    |    nbeta =  1     kkbeta =  271     rcloc =    0.6000    |
    |    ibeta    l     epsilon   rcut                         |
    |      1       0      -0.48   0.80                         |
    ============================================================

     IMPORTANT: XC functional enforced from input :
     Exchange-correlation= BLYP
                           (   1   3   1   3   0   0   0)
     Any further DFT definition will be discarded
     Please, verify this is what you really want


     G-vector sticks info
     --------------------
     sticks:   dense  smooth     PW     G-vecs:    dense   smooth      PW
     Sum        1433    1433    421                40651    40651    6451

     Using Slab Decomposition



     bravais-lattice index     =            1
     lattice parameter (alat)  =      30.0000  a.u.
     unit-cell volume          =   27000.0000 (a.u.)^3
     number of atoms/cell      =            2
     number of atomic types    =            1
     number of electrons       =         2.00
     number of Kohn-Sham states=            2
     kinetic-energy cutoff     =       5.0000  Ry
     charge density cutoff     =      20.0000  Ry
     scf convergence threshold =      1.0E-08
     mixing beta               =       0.7000
     number of iterations used =            8  plain     mixing
     Exchange-correlation= BLYP
                           (   1   3   1   3   0   0   0)

     celldm(1)=  30.000000  celldm(2)=   0.000000  celldm(3)=   0.000000
     celldm(4)=   0.000000  celldm(5)=   0.000000  celldm(6)=   0.000000

     crystal axes: (cart. coord. in units of alat)
               a(1) = (   1.000000   0.000000   0.000000 )  
               a(2) = (   0.000000   1.000000   0.000000 )  
               a(3) = (   0.000000   0.000000   1.000000 )  

     reciprocal axes: (cart. coord. in units 2 pi/alat)
               b(1) = (  1.000000  0.000000  0.000000 )  
               b(2) = (  0.000000  1.000000  0.000000 )  
               b(3) = (  0.000000  0.000000  1.000000 )  


     PseudoPot. # 1 for hy read from file:
     /root/q-e/pseudo/H_US.van
     MD5 check sum: a9a9bfe98ff56cf4de197d71fc46bb44
     Pseudo is Ultrasoft, Zval =  1.0
     Generated by Vanderbilt code, v. 7.3.2
     Using radial grid of  399 points,  1 beta functions with: 
                l(1) =   0
     Q(r) pseudized with  8 coefficients,  rinner =    0.500

     atomic species   valence    mass     pseudopotential
        H              1.00     1.00784     hy( 1.00)

      8 Sym. Ops. (no inversion) found


                                    s                        frac. trans.

      isym =  1     identity                                     

 cryst.   s( 1) = (     1          0          0      )
                  (     0          1          0      )
                  (     0          0          1      )

 cart.    s( 1) = (  1.0000000  0.0000000  0.0000000 )
                  (  0.0000000  1.0000000  0.0000000 )
                  (  0.0000000  0.0000000  1.0000000 )


      isym =  2     180 deg rotation - cart. axis [1,0,0]        

 cryst.   s( 2) = (     1          0          0      )
                  (     0         -1          0      )
                  (     0          0         -1      )

 cart.    s( 2) = (  1.0000000  0.0000000  0.0000000 )
                  (  0.0000000 -1.0000000  0.0000000 )
                  (  0.0000000  0.0000000 -1.0000000 )


      isym =  3      90 deg rotation - cart. axis [-1,0,0]       

 cryst.   s( 3) = (     1          0          0      )
                  (     0          0         -1      )
                  (     0          1          0      )

 cart.    s( 3) = (  1.0000000  0.0000000  0.0000000 )
                  (  0.0000000  0.0000000  1.0000000 )
                  (  0.0000000 -1.0000000  0.0000000 )


      isym =  4      90 deg rotation - cart. axis [1,0,0]        

 cryst.   s( 4) = (     1          0          0      )
                  (     0          0          1      )
                  (     0         -1          0      )

 cart.    s( 4) = (  1.0000000  0.0000000  0.0000000 )
                  (  0.0000000  0.0000000 -1.0000000 )
                  (  0.0000000  1.0000000  0.0000000 )


      isym =  5     inv. 180 deg rotation - cart. axis [0,0,1]   

 cryst.   s( 5) = (     1          0          0      )
                  (     0          1          0      )
                  (     0          0         -1      )

 cart.    s( 5) = (  1.0000000  0.0000000  0.0000000 )
                  (  0.0000000  1.0000000  0.0000000 )
                  (  0.0000000  0.0000000 -1.0000000 )


      isym =  6     inv. 180 deg rotation - cart. axis [0,1,0]   

 cryst.   s( 6) = (     1          0          0      )
                  (     0         -1          0      )
                  (     0          0          1      )

 cart.    s( 6) = (  1.0000000  0.0000000  0.0000000 )
                  (  0.0000000 -1.0000000  0.0000000 )
                  (  0.0000000  0.0000000  1.0000000 )


      isym =  7     inv. 180 deg rotation - cart. axis [0,1,1]   

 cryst.   s( 7) = (     1          0          0      )
                  (     0          0         -1      )
                  (     0         -1          0      )

 cart.    s( 7) = (  1.0000000  0.0000000  0.0000000 )
                  (  0.0000000  0.0000000 -1.0000000 )
                  (  0.0000000 -1.0000000  0.0000000 )


      isym =  8     inv. 180 deg rotation - cart. axis [0,1,-1]  

 cryst.   s( 8) = (     1          0          0      )
                  (     0          0          1      )
                  (     0          1          0      )

 cart.    s( 8) = (  1.0000000  0.0000000  0.0000000 )
                  (  0.0000000  0.0000000  1.0000000 )
                  (  0.0000000  1.0000000  0.0000000 )


     point group C_4v (4mm) 
     there are  5 classes
     the character table:

       E     2C4   C2    2s_v  2s_d 
A_1    1.00  1.00  1.00  1.00  1.00
A_2    1.00  1.00  1.00 -1.00 -1.00
B_1    1.00 -1.00  1.00  1.00 -1.00
B_2    1.00 -1.00  1.00 -1.00  1.00
E      2.00  0.00 -2.00  0.00  0.00

     the symmetry operations in each class and the name of the first element:

     E        1
          identity                                               
     2C4      3    4
           90 deg rotation - cart. axis [-1,0,0]                 
     C2       2
          180 deg rotation - cart. axis [1,0,0]                  
     2s_v     5    6
          inv. 180 deg rotation - cart. axis [0,0,1]             
     2s_d     7    8
          inv. 180 deg rotation - cart. axis [0,1,1]             

   Cartesian axes

     site n.     atom                  positions (alat units)
         1           H   tau(   1) = (   0.0000000   0.0000000   0.0000000  )
         2           H   tau(   2) = (   0.0062991   0.0000000   0.0000000  )

   Crystallographic axes

     site n.     atom                  positions (cryst. coord.)
         1           H   tau(   1) = (  0.0000000  0.0000000  0.0000000  )
         2           H   tau(   2) = (  0.0062991  0.0000000  0.0000000  )

     number of k points=     1
                       cart. coord. in units 2pi/alat
        k(    1) = (  -0.5000000  -0.5000000  -0.5000000), wk =   2.0000000

                       cryst. coord.
        k(    1) = (  -0.5000000  -0.5000000  -0.5000000), wk =   2.0000000

     Dense  grid:    40651 G-vectors     FFT dimensions: (  45,  45,  45)

     Dynamical RAM for                 wfc:       0.16 MB

     Dynamical RAM for     wfc (w. buffer):       0.16 MB

     Dynamical RAM for           str. fact:       0.62 MB

     Dynamical RAM for           local pot:       0.00 MB

     Dynamical RAM for          nlocal pot:       0.16 MB

     Dynamical RAM for                qrad:       0.00 MB

     Dynamical RAM for          rho,v,vnew:       3.95 MB

     Dynamical RAM for               rhoin:       1.32 MB

     Dynamical RAM for            rho*nmix:       9.92 MB

     Dynamical RAM for           G-vectors:       2.64 MB

     Dynamical RAM for          h,s,v(r/c):       0.00 MB

     Dynamical RAM for          <psi|beta>:       0.00 MB

     Dynamical RAM for                 psi:       0.31 MB

     Dynamical RAM for                hpsi:       0.31 MB

     Dynamical RAM for                spsi:       0.31 MB

     Dynamical RAM for      wfcinit/wfcrot:       0.31 MB

     Dynamical RAM for           addusdens:       3.72 MB

     Estimated static dynamical RAM per process >      13.55 MB

     Estimated max dynamical RAM per process >      27.20 MB

     Initial potential from superposition of free atoms

     starting charge       2.0000, renormalised to       2.0000

     negative rho (up, down):  7.670E-01 0.000E+00
     Starting wfcs are    2 randomized atomic wfcs

     total cpu time spent up to now is        0.1 secs

     Self-consistent Calculation

     iteration #  1     ecut=     5.00 Ry     beta= 0.70
     Davidson diagonalization with overlap

---- Real-time Memory Report at c_bands before calling an iterative solver
            38 MiB given to the printing process from OS
             0 MiB allocation reported by mallinfo(arena+hblkhd)
          1275 MiB available memory on the node where the printing process lives
------------------
     ethr =  1.00E-02,  avg # of iterations =  9.0

     negative rho (up, down):  8.874E-01 0.000E+00

     total cpu time spent up to now is        0.2 secs

     total energy              =       6.27297606 Ry
     estimated scf accuracy    <       0.06456427 Ry

     iteration #  2     ecut=     5.00 Ry     beta= 0.70
     Davidson diagonalization with overlap

---- Real-time Memory Report at c_bands before calling an iterative solver
            44 MiB given to the printing process from OS
             0 MiB allocation reported by mallinfo(arena+hblkhd)
          1262 MiB available memory on the node where the printing process lives
------------------
     ethr =  3.23E-03,  avg # of iterations =  1.0

     negative rho (up, down):  9.229E-01 0.000E+00

     total cpu time spent up to now is        0.3 secs

     total energy              =       6.27599062 Ry
     estimated scf accuracy    <       0.00240953 Ry

     iteration #  3     ecut=     5.00 Ry     beta= 0.70
     Davidson diagonalization with overlap

---- Real-time Memory Report at c_bands before calling an iterative solver
            46 MiB given to the printing process from OS
             0 MiB allocation reported by mallinfo(arena+hblkhd)
          1261 MiB available memory on the node where the printing process lives
------------------
     ethr =  1.20E-04,  avg # of iterations =  6.0

     negative rho (up, down):  8.871E-01 0.000E+00

     total cpu time spent up to now is        0.4 secs

     total energy              =       6.26555792 Ry
     estimated scf accuracy    <       0.00074534 Ry

     iteration #  4     ecut=     5.00 Ry     beta= 0.70
     Davidson diagonalization with overlap

---- Real-time Memory Report at c_bands before calling an iterative solver
            47 MiB given to the printing process from OS
             0 MiB allocation reported by mallinfo(arena+hblkhd)
          1259 MiB available memory on the node where the printing process lives
------------------
     ethr =  3.73E-05,  avg # of iterations =  6.0

     negative rho (up, down):  8.864E-01 0.000E+00

     total cpu time spent up to now is        0.4 secs

     total energy              =       6.26996473 Ry
     estimated scf accuracy    <       0.00083819 Ry

     iteration #  5     ecut=     5.00 Ry     beta= 0.70
     Davidson diagonalization with overlap

---- Real-time Memory Report at c_bands before calling an iterative solver
            48 MiB given to the printing process from OS
             0 MiB allocation reported by mallinfo(arena+hblkhd)
          1258 MiB available memory on the node where the printing process lives
------------------
     ethr =  3.73E-05,  avg # of iterations =  3.0

     negative rho (up, down):  8.940E-01 0.000E+00

     total cpu time spent up to now is        0.5 secs

     total energy              =       6.26560574 Ry
     estimated scf accuracy    <       0.00007266 Ry

     iteration #  6     ecut=     5.00 Ry     beta= 0.70
     Davidson diagonalization with overlap

---- Real-time Memory Report at c_bands before calling an iterative solver
            49 MiB given to the printing process from OS
             0 MiB allocation reported by mallinfo(arena+hblkhd)
          1257 MiB available memory on the node where the printing process lives
------------------
     ethr =  3.63E-06,  avg # of iterations = 16.0

     negative rho (up, down):  8.977E-01 0.000E+00

     total cpu time spent up to now is        0.6 secs

     total energy              =       6.26552043 Ry
     estimated scf accuracy    <       0.00003043 Ry

     iteration #  7     ecut=     5.00 Ry     beta= 0.70
     Davidson diagonalization with overlap

---- Real-time Memory Report at c_bands before calling an iterative solver
            51 MiB given to the printing process from OS
             0 MiB allocation reported by mallinfo(arena+hblkhd)
          1256 MiB available memory on the node where the printing process lives
------------------
     c_bands:  1 eigenvalues not converged
     ethr =  1.52E-06,  avg # of iterations = 20.0

     negative rho (up, down):  8.976E-01 0.000E+00

     total cpu time spent up to now is        0.7 secs

     total energy              =       6.26594415 Ry
     estimated scf accuracy    <       0.00003551 Ry

     iteration #  8     ecut=     5.00 Ry     beta= 0.70
     Davidson diagonalization with overlap

---- Real-time Memory Report at c_bands before calling an iterative solver
            52 MiB given to the printing process from OS
             0 MiB allocation reported by mallinfo(arena+hblkhd)
          1255 MiB available memory on the node where the printing process lives
------------------
     ethr =  1.52E-06,  avg # of iterations =  8.0

     negative rho (up, down):  8.961E-01 0.000E+00

     total cpu time spent up to now is        0.8 secs

     total energy              =       6.26531419 Ry
     estimated scf accuracy    <       0.00001295 Ry

     iteration #  9     ecut=     5.00 Ry     beta= 0.70
     Davidson diagonalization with overlap

---- Real-time Memory Report at c_bands before calling an iterative solver
            53 MiB given to the printing process from OS
             0 MiB allocation reported by mallinfo(arena+hblkhd)
          1253 MiB available memory on the node where the printing process lives
------------------
     ethr =  6.47E-07,  avg # of iterations =  2.0

     negative rho (up, down):  8.976E-01 0.000E+00

     total cpu time spent up to now is        0.9 secs

     total energy              =       6.26566819 Ry
     estimated scf accuracy    <       0.00000886 Ry

     iteration # 10     ecut=     5.00 Ry     beta= 0.70
     Davidson diagonalization with overlap

---- Real-time Memory Report at c_bands before calling an iterative solver
            54 MiB given to the printing process from OS
             0 MiB allocation reported by mallinfo(arena+hblkhd)
          1252 MiB available memory on the node where the printing process lives
------------------
     ethr =  4.43E-07,  avg # of iterations =  3.0

     negative rho (up, down):  8.958E-01 0.000E+00

     total cpu time spent up to now is        1.0 secs

     total energy              =       6.26547430 Ry
     estimated scf accuracy    <       0.00001197 Ry

     iteration # 11     ecut=     5.00 Ry     beta= 0.70
     Davidson diagonalization with overlap

---- Real-time Memory Report at c_bands before calling an iterative solver
            54 MiB given to the printing process from OS
             0 MiB allocation reported by mallinfo(arena+hblkhd)
          1252 MiB available memory on the node where the printing process lives
------------------
     ethr =  4.43E-07,  avg # of iterations =  3.0

     negative rho (up, down):  8.962E-01 0.000E+00

     total cpu time spent up to now is        1.1 secs

     total energy              =       6.26562652 Ry
     estimated scf accuracy    <       0.00000443 Ry

     iteration # 12     ecut=     5.00 Ry     beta= 0.70
     Davidson diagonalization with overlap

---- Real-time Memory Report at c_bands before calling an iterative solver
            54 MiB given to the printing process from OS
             0 MiB allocation reported by mallinfo(arena+hblkhd)
          1252 MiB available memory on the node where the printing process lives
------------------
     c_bands:  1 eigenvalues not converged
     ethr =  2.22E-07,  avg # of iterations = 20.0

     negative rho (up, down):  8.967E-01 0.000E+00

     total cpu time spent up to now is        1.2 secs

     total energy              =       6.26597758 Ry
     estimated scf accuracy    <       0.00000972 Ry

     iteration # 13     ecut=     5.00 Ry     beta= 0.70
     Davidson diagonalization with overlap

---- Real-time Memory Report at c_bands before calling an iterative solver
            54 MiB given to the printing process from OS
             0 MiB allocation reported by mallinfo(arena+hblkhd)
          1252 MiB available memory on the node where the printing process lives
------------------
     ethr =  2.22E-07,  avg # of iterations =  8.0

     negative rho (up, down):  8.966E-01 0.000E+00

     total cpu time spent up to now is        1.3 secs

     total energy              =       6.26619187 Ry
     estimated scf accuracy    <       0.00000910 Ry

     iteration # 14     ecut=     5.00 Ry     beta= 0.70
     Davidson diagonalization with overlap

---- Real-time Memory Report at c_bands before calling an iterative solver
            54 MiB given to the printing process from OS
             0 MiB allocation reported by mallinfo(arena+hblkhd)
          1252 MiB available memory on the node where the printing process lives
------------------
     ethr =  2.22E-07,  avg # of iterations =  6.0

     negative rho (up, down):  8.969E-01 0.000E+00

     total cpu time spent up to now is        1.3 secs

     total energy              =       6.26608151 Ry
     estimated scf accuracy    <       0.00000351 Ry

     iteration # 15     ecut=     5.00 Ry     beta= 0.70
     Davidson diagonalization with overlap

---- Real-time Memory Report at c_bands before calling an iterative solver
            54 MiB given to the printing process from OS
             0 MiB allocation reported by mallinfo(arena+hblkhd)
          1252 MiB available memory on the node where the printing process lives
------------------
     ethr =  1.75E-07,  avg # of iterations =  4.0

     negative rho (up, down):  8.973E-01 0.000E+00

     total cpu time spent up to now is        1.4 secs

     total energy              =       6.26602892 Ry
     estimated scf accuracy    <       0.00000655 Ry

     iteration # 16     ecut=     5.00 Ry     beta= 0.70
     Davidson diagonalization with overlap

---- Real-time Memory Report at c_bands before calling an iterative solver
            54 MiB given to the printing process from OS
             0 MiB allocation reported by mallinfo(arena+hblkhd)
          1252 MiB available memory on the node where the printing process lives
------------------
     ethr =  1.75E-07,  avg # of iterations =  4.0

     negative rho (up, down):  8.971E-01 0.000E+00

     total cpu time spent up to now is        1.5 secs

     total energy              =       6.26588569 Ry
     estimated scf accuracy    <       0.00000482 Ry

     iteration # 17     ecut=     5.00 Ry     beta= 0.70
     Davidson diagonalization with overlap

---- Real-time Memory Report at c_bands before calling an iterative solver
            54 MiB given to the printing process from OS
             0 MiB allocation reported by mallinfo(arena+hblkhd)
          1252 MiB available memory on the node where the printing process lives
------------------
     c_bands:  1 eigenvalues not converged
     ethr =  1.75E-07,  avg # of iterations = 20.0

     negative rho (up, down):  8.978E-01 0.000E+00

     total cpu time spent up to now is        1.6 secs

     total energy              =       6.26620865 Ry
     estimated scf accuracy    <       0.00001196 Ry

     iteration # 18     ecut=     5.00 Ry     beta= 0.70
     Davidson diagonalization with overlap

---- Real-time Memory Report at c_bands before calling an iterative solver
            54 MiB given to the printing process from OS
             0 MiB allocation reported by mallinfo(arena+hblkhd)
          1252 MiB available memory on the node where the printing process lives
------------------
     ethr =  1.75E-07,  avg # of iterations =  8.0

     negative rho (up, down):  8.974E-01 0.000E+00

     total cpu time spent up to now is        1.7 secs

     total energy              =       6.26605107 Ry
     estimated scf accuracy    <       0.00000768 Ry

     iteration # 19     ecut=     5.00 Ry     beta= 0.70
     Davidson diagonalization with overlap

---- Real-time Memory Report at c_bands before calling an iterative solver
            54 MiB given to the printing process from OS
             0 MiB allocation reported by mallinfo(arena+hblkhd)
          1252 MiB available memory on the node where the printing process lives
------------------
     ethr =  1.75E-07,  avg # of iterations =  3.0

     negative rho (up, down):  8.986E-01 0.000E+00

     total cpu time spent up to now is        1.8 secs

     total energy              =       6.26631823 Ry
     estimated scf accuracy    <       0.00000911 Ry

     iteration # 20     ecut=     5.00 Ry     beta= 0.70
     Davidson diagonalization with overlap

---- Real-time Memory Report at c_bands before calling an iterative solver
            54 MiB given to the printing process from OS
             0 MiB allocation reported by mallinfo(arena+hblkhd)
          1252 MiB available memory on the node where the printing process lives
------------------
     ethr =  1.75E-07,  avg # of iterations =  4.0

     negative rho (up, down):  8.976E-01 0.000E+00

     total cpu time spent up to now is        1.9 secs

     total energy              =       6.26604791 Ry
     estimated scf accuracy    <       0.00001013 Ry

     iteration # 21     ecut=     5.00 Ry     beta= 0.70
     Davidson diagonalization with overlap

---- Real-time Memory Report at c_bands before calling an iterative solver
            54 MiB given to the printing process from OS
             0 MiB allocation reported by mallinfo(arena+hblkhd)
          1252 MiB available memory on the node where the printing process lives
------------------
     ethr =  1.75E-07,  avg # of iterations =  4.0

     negative rho (up, down):  9.012E-01 0.000E+00

     total cpu time spent up to now is        1.9 secs

     total energy              =       6.26680432 Ry
     estimated scf accuracy    <       0.00001027 Ry

     iteration # 22     ecut=     5.00 Ry     beta= 0.70
     Davidson diagonalization with overlap

---- Real-time Memory Report at c_bands before calling an iterative solver
            54 MiB given to the printing process from OS
             0 MiB allocation reported by mallinfo(arena+hblkhd)
          1252 MiB available memory on the node where the printing process lives
------------------
     ethr =  1.75E-07,  avg # of iterations =  8.0

     negative rho (up, down):  8.921E-01 0.000E+00

     total cpu time spent up to now is        2.0 secs

     total energy              =       6.26455531 Ry
     estimated scf accuracy    <       0.00001863 Ry

     iteration # 23     ecut=     5.00 Ry     beta= 0.70
     Davidson diagonalization with overlap

---- Real-time Memory Report at c_bands before calling an iterative solver
            54 MiB given to the printing process from OS
             0 MiB allocation reported by mallinfo(arena+hblkhd)
          1252 MiB available memory on the node where the printing process lives
------------------
     c_bands:  1 eigenvalues not converged
     ethr =  1.75E-07,  avg # of iterations = 20.0

     negative rho (up, down):  8.954E-01 0.000E+00

     total cpu time spent up to now is        2.2 secs

     total energy              =       6.26561820 Ry
     estimated scf accuracy    <       0.00002875 Ry

     iteration # 24     ecut=     5.00 Ry     beta= 0.70
     Davidson diagonalization with overlap

---- Real-time Memory Report at c_bands before calling an iterative solver
            54 MiB given to the printing process from OS
             0 MiB allocation reported by mallinfo(arena+hblkhd)
          1252 MiB available memory on the node where the printing process lives
------------------
     ethr =  1.75E-07,  avg # of iterations =  6.0

     negative rho (up, down):  8.960E-01 0.000E+00

     total cpu time spent up to now is        2.2 secs

     total energy              =       6.26552424 Ry
     estimated scf accuracy    <       0.00000029 Ry

     iteration # 25     ecut=     5.00 Ry     beta= 0.70
     Davidson diagonalization with overlap

---- Real-time Memory Report at c_bands before calling an iterative solver
            54 MiB given to the printing process from OS
             0 MiB allocation reported by mallinfo(arena+hblkhd)
          1252 MiB available memory on the node where the printing process lives
------------------
     ethr =  1.43E-08,  avg # of iterations = 20.0

     negative rho (up, down):  8.954E-01 0.000E+00

     total cpu time spent up to now is        2.4 secs

     total energy              =       6.26533375 Ry
     estimated scf accuracy    <       0.00000607 Ry

     iteration # 26     ecut=     5.00 Ry     beta= 0.70
     Davidson diagonalization with overlap

---- Real-time Memory Report at c_bands before calling an iterative solver
            54 MiB given to the printing process from OS
             0 MiB allocation reported by mallinfo(arena+hblkhd)
          1252 MiB available memory on the node where the printing process lives
------------------
     ethr =  1.43E-08,  avg # of iterations =  9.0

     negative rho (up, down):  8.980E-01 0.000E+00

     total cpu time spent up to now is        2.5 secs

     total energy              =       6.26665478 Ry
     estimated scf accuracy    <       0.00000025 Ry

     iteration # 27     ecut=     5.00 Ry     beta= 0.70
     Davidson diagonalization with overlap

---- Real-time Memory Report at c_bands before calling an iterative solver
            54 MiB given to the printing process from OS
             0 MiB allocation reported by mallinfo(arena+hblkhd)
          1252 MiB available memory on the node where the printing process lives
------------------
     ethr =  1.26E-08,  avg # of iterations =  5.0

     negative rho (up, down):  8.962E-01 0.000E+00

     total cpu time spent up to now is        2.5 secs

     total energy              =       6.26599216 Ry
     estimated scf accuracy    <       0.00000548 Ry

     iteration # 28     ecut=     5.00 Ry     beta= 0.70
     Davidson diagonalization with overlap

---- Real-time Memory Report at c_bands before calling an iterative solver
            54 MiB given to the printing process from OS
             0 MiB allocation reported by mallinfo(arena+hblkhd)
          1252 MiB available memory on the node where the printing process lives
------------------
     ethr =  1.26E-08,  avg # of iterations =  4.0

     negative rho (up, down):  8.951E-01 0.000E+00

     total cpu time spent up to now is        2.6 secs

     total energy              =       6.26499866 Ry
     estimated scf accuracy    <       0.00000258 Ry

     iteration # 29     ecut=     5.00 Ry     beta= 0.70
     Davidson diagonalization with overlap

---- Real-time Memory Report at c_bands before calling an iterative solver
            54 MiB given to the printing process from OS
             0 MiB allocation reported by mallinfo(arena+hblkhd)
          1252 MiB available memory on the node where the printing process lives
------------------
     ethr =  1.26E-08,  avg # of iterations =  7.0

     negative rho (up, down):  8.962E-01 0.000E+00

     total cpu time spent up to now is        2.7 secs

     total energy              =       6.26607127 Ry
     estimated scf accuracy    <       0.00000044 Ry

     iteration # 30     ecut=     5.00 Ry     beta= 0.70
     Davidson diagonalization with overlap

---- Real-time Memory Report at c_bands before calling an iterative solver
            54 MiB given to the printing process from OS
             0 MiB allocation reported by mallinfo(arena+hblkhd)
          1252 MiB available memory on the node where the printing process lives
------------------
     ethr =  1.26E-08,  avg # of iterations =  5.0

     negative rho (up, down):  8.976E-01 0.000E+00

     total cpu time spent up to now is        2.8 secs

     total energy              =       6.26617677 Ry
     estimated scf accuracy    <       0.00000071 Ry

     iteration # 31     ecut=     5.00 Ry     beta= 0.70
     Davidson diagonalization with overlap

---- Real-time Memory Report at c_bands before calling an iterative solver
            54 MiB given to the printing process from OS
             0 MiB allocation reported by mallinfo(arena+hblkhd)
          1252 MiB available memory on the node where the printing process lives
------------------
     ethr =  1.26E-08,  avg # of iterations =  9.0

     negative rho (up, down):  8.976E-01 0.000E+00

     total cpu time spent up to now is        2.9 secs

     total energy              =       6.26596404 Ry
     estimated scf accuracy    <       0.00001034 Ry

     iteration # 32     ecut=     5.00 Ry     beta= 0.70
     Davidson diagonalization with overlap

---- Real-time Memory Report at c_bands before calling an iterative solver
            54 MiB given to the printing process from OS
             0 MiB allocation reported by mallinfo(arena+hblkhd)
          1252 MiB available memory on the node where the printing process lives
------------------
     ethr =  1.26E-08,  avg # of iterations =  2.0

     negative rho (up, down):  8.970E-01 0.000E+00

     total cpu time spent up to now is        3.0 secs

     total energy              =       6.26620486 Ry
     estimated scf accuracy    <       0.00001193 Ry

     iteration # 33     ecut=     5.00 Ry     beta= 0.70
     Davidson diagonalization with overlap

---- Real-time Memory Report at c_bands before calling an iterative solver
            54 MiB given to the printing process from OS
             0 MiB allocation reported by mallinfo(arena+hblkhd)
          1252 MiB available memory on the node where the printing process lives
------------------
     ethr =  1.26E-08,  avg # of iterations =  7.0

     negative rho (up, down):  8.967E-01 0.000E+00

     total cpu time spent up to now is        3.1 secs

     total energy              =       6.26607093 Ry
     estimated scf accuracy    <       0.00000130 Ry

     iteration # 34     ecut=     5.00 Ry     beta= 0.70
     Davidson diagonalization with overlap

---- Real-time Memory Report at c_bands before calling an iterative solver
            54 MiB given to the printing process from OS
             0 MiB allocation reported by mallinfo(arena+hblkhd)
          1252 MiB available memory on the node where the printing process lives
------------------
     ethr =  1.26E-08,  avg # of iterations =  3.0

     negative rho (up, down):  8.959E-01 0.000E+00

     total cpu time spent up to now is        3.1 secs

     total energy              =       6.26570992 Ry
     estimated scf accuracy    <       0.00000057 Ry

     iteration # 35     ecut=     5.00 Ry     beta= 0.70
     Davidson diagonalization with overlap

---- Real-time Memory Report at c_bands before calling an iterative solver
            54 MiB given to the printing process from OS
             0 MiB allocation reported by mallinfo(arena+hblkhd)
          1252 MiB available memory on the node where the printing process lives
------------------
     ethr =  1.26E-08,  avg # of iterations =  3.0

     negative rho (up, down):  8.962E-01 0.000E+00

     total cpu time spent up to now is        3.2 secs

     total energy              =       6.26581028 Ry
     estimated scf accuracy    <       0.00000050 Ry

     iteration # 36     ecut=     5.00 Ry     beta= 0.70
     Davidson diagonalization with overlap

---- Real-time Memory Report at c_bands before calling an iterative solver
            54 MiB given to the printing process from OS
             0 MiB allocation reported by mallinfo(arena+hblkhd)
          1252 MiB available memory on the node where the printing process lives
------------------
     ethr =  1.26E-08,  avg # of iterations =  5.0

     negative rho (up, down):  8.960E-01 0.000E+00

     total cpu time spent up to now is        3.3 secs

     total energy              =       6.26604761 Ry
     estimated scf accuracy    <       0.00000353 Ry

     iteration # 37     ecut=     5.00 Ry     beta= 0.70
     Davidson diagonalization with overlap

---- Real-time Memory Report at c_bands before calling an iterative solver
            54 MiB given to the printing process from OS
             0 MiB allocation reported by mallinfo(arena+hblkhd)
          1252 MiB available memory on the node where the printing process lives
------------------
     ethr =  1.26E-08,  avg # of iterations =  4.0

     negative rho (up, down):  8.960E-01 0.000E+00

     total cpu time spent up to now is        3.4 secs

     total energy              =       6.26589236 Ry
     estimated scf accuracy    <       0.00000113 Ry

     iteration # 38     ecut=     5.00 Ry     beta= 0.70
     Davidson diagonalization with overlap

---- Real-time Memory Report at c_bands before calling an iterative solver
            54 MiB given to the printing process from OS
             0 MiB allocation reported by mallinfo(arena+hblkhd)
          1252 MiB available memory on the node where the printing process lives
------------------
     ethr =  1.26E-08,  avg # of iterations =  3.0

     negative rho (up, down):  8.965E-01 0.000E+00

     total cpu time spent up to now is        3.5 secs

     total energy              =       6.26612822 Ry
     estimated scf accuracy    <       0.00000111 Ry

     iteration # 39     ecut=     5.00 Ry     beta= 0.70
     Davidson diagonalization with overlap

---- Real-time Memory Report at c_bands before calling an iterative solver
            54 MiB given to the printing process from OS
             0 MiB allocation reported by mallinfo(arena+hblkhd)
          1252 MiB available memory on the node where the printing process lives
------------------
     ethr =  1.26E-08,  avg # of iterations =  4.0

     negative rho (up, down):  8.967E-01 0.000E+00

     total cpu time spent up to now is        3.5 secs

     total energy              =       6.26605214 Ry
     estimated scf accuracy    <       0.00000059 Ry

     iteration # 40     ecut=     5.00 Ry     beta= 0.70
     Davidson diagonalization with overlap

---- Real-time Memory Report at c_bands before calling an iterative solver
            54 MiB given to the printing process from OS
             0 MiB allocation reported by mallinfo(arena+hblkhd)
          1252 MiB available memory on the node where the printing process lives
------------------
     ethr =  1.26E-08,  avg # of iterations =  3.0

     negative rho (up, down):  8.968E-01 0.000E+00

     total cpu time spent up to now is        3.6 secs

     total energy              =       6.26606416 Ry
     estimated scf accuracy    <       0.00000093 Ry

     iteration # 41     ecut=     5.00 Ry     beta= 0.70
     Davidson diagonalization with overlap

---- Real-time Memory Report at c_bands before calling an iterative solver
            54 MiB given to the printing process from OS
             0 MiB allocation reported by mallinfo(arena+hblkhd)
          1252 MiB available memory on the node where the printing process lives
------------------
     ethr =  1.26E-08,  avg # of iterations =  2.0

     negative rho (up, down):  8.965E-01 0.000E+00

     total cpu time spent up to now is        3.7 secs

     total energy              =       6.26603586 Ry
     estimated scf accuracy    <       0.00000101 Ry

     iteration # 42     ecut=     5.00 Ry     beta= 0.70
     Davidson diagonalization with overlap

---- Real-time Memory Report at c_bands before calling an iterative solver
            54 MiB given to the printing process from OS
             0 MiB allocation reported by mallinfo(arena+hblkhd)
          1252 MiB available memory on the node where the printing process lives
------------------
     ethr =  1.26E-08,  avg # of iterations =  3.0

     negative rho (up, down):  8.966E-01 0.000E+00

     total cpu time spent up to now is        3.8 secs

     total energy              =       6.26603549 Ry
     estimated scf accuracy    <       0.00000049 Ry

     iteration # 43     ecut=     5.00 Ry     beta= 0.70
     Davidson diagonalization with overlap

---- Real-time Memory Report at c_bands before calling an iterative solver
            54 MiB given to the printing process from OS
             0 MiB allocation reported by mallinfo(arena+hblkhd)
          1252 MiB available memory on the node where the printing process lives
------------------
     ethr =  1.26E-08,  avg # of iterations =  2.0

     negative rho (up, down):  8.965E-01 0.000E+00

     total cpu time spent up to now is        3.8 secs

     total energy              =       6.26602613 Ry
     estimated scf accuracy    <       0.00000048 Ry

     iteration # 44     ecut=     5.00 Ry     beta= 0.70
     Davidson diagonalization with overlap

---- Real-time Memory Report at c_bands before calling an iterative solver
            54 MiB given to the printing process from OS
             0 MiB allocation reported by mallinfo(arena+hblkhd)
          1252 MiB available memory on the node where the printing process lives
------------------
     ethr =  1.26E-08,  avg # of iterations =  2.0

     negative rho (up, down):  8.967E-01 0.000E+00

     total cpu time spent up to now is        3.9 secs

     total energy              =       6.26606260 Ry
     estimated scf accuracy    <       0.00000054 Ry

     iteration # 45     ecut=     5.00 Ry     beta= 0.70
     Davidson diagonalization with overlap

---- Real-time Memory Report at c_bands before calling an iterative solver
            54 MiB given to the printing process from OS
             0 MiB allocation reported by mallinfo(arena+hblkhd)
          1252 MiB available memory on the node where the printing process lives
------------------
     ethr =  1.26E-08,  avg # of iterations =  2.0

     negative rho (up, down):  8.968E-01 0.000E+00

     total cpu time spent up to now is        4.0 secs

     total energy              =       6.26607666 Ry
     estimated scf accuracy    <       0.00000049 Ry

     iteration # 46     ecut=     5.00 Ry     beta= 0.70
     Davidson diagonalization with overlap

---- Real-time Memory Report at c_bands before calling an iterative solver
            54 MiB given to the printing process from OS
             0 MiB allocation reported by mallinfo(arena+hblkhd)
          1252 MiB available memory on the node where the printing process lives
------------------
     ethr =  1.26E-08,  avg # of iterations =  2.0

     negative rho (up, down):  8.967E-01 0.000E+00

     total cpu time spent up to now is        4.1 secs

     total energy              =       6.26578535 Ry
     estimated scf accuracy    <       0.00000047 Ry

     iteration # 47     ecut=     5.00 Ry     beta= 0.70
     Davidson diagonalization with overlap

---- Real-time Memory Report at c_bands before calling an iterative solver
            54 MiB given to the printing process from OS
             0 MiB allocation reported by mallinfo(arena+hblkhd)
          1252 MiB available memory on the node where the printing process lives
------------------
     ethr =  1.26E-08,  avg # of iterations =  5.0

     negative rho (up, down):  8.965E-01 0.000E+00

     total cpu time spent up to now is        4.1 secs

     total energy              =       6.26606406 Ry
     estimated scf accuracy    <       0.00000377 Ry

     iteration # 48     ecut=     5.00 Ry     beta= 0.70
     Davidson diagonalization with overlap

---- Real-time Memory Report at c_bands before calling an iterative solver
            54 MiB given to the printing process from OS
             0 MiB allocation reported by mallinfo(arena+hblkhd)
          1252 MiB available memory on the node where the printing process lives
------------------
     ethr =  1.26E-08,  avg # of iterations =  3.0

     negative rho (up, down):  8.964E-01 0.000E+00

     total cpu time spent up to now is        4.2 secs

     total energy              =       6.26601320 Ry
     estimated scf accuracy    <       0.00000074 Ry

     iteration # 49     ecut=     5.00 Ry     beta= 0.70
     Davidson diagonalization with overlap

---- Real-time Memory Report at c_bands before calling an iterative solver
            54 MiB given to the printing process from OS
             0 MiB allocation reported by mallinfo(arena+hblkhd)
          1252 MiB available memory on the node where the printing process lives
------------------
     ethr =  1.26E-08,  avg # of iterations =  2.0

     negative rho (up, down):  8.965E-01 0.000E+00

     total cpu time spent up to now is        4.3 secs

     total energy              =       6.26603045 Ry
     estimated scf accuracy    <       0.00000056 Ry

     iteration # 50     ecut=     5.00 Ry     beta= 0.70
     Davidson diagonalization with overlap

---- Real-time Memory Report at c_bands before calling an iterative solver
            54 MiB given to the printing process from OS
             0 MiB allocation reported by mallinfo(arena+hblkhd)
          1252 MiB available memory on the node where the printing process lives
------------------
     ethr =  1.26E-08,  avg # of iterations =  3.0

     negative rho (up, down):  8.965E-01 0.000E+00

     total cpu time spent up to now is        4.4 secs

     total energy              =       6.26602836 Ry
     estimated scf accuracy    <       0.00000033 Ry

     iteration # 51     ecut=     5.00 Ry     beta= 0.70
     Davidson diagonalization with overlap

---- Real-time Memory Report at c_bands before calling an iterative solver
            54 MiB given to the printing process from OS
             0 MiB allocation reported by mallinfo(arena+hblkhd)
          1252 MiB available memory on the node where the printing process lives
------------------
     ethr =  1.26E-08,  avg # of iterations =  3.0

     negative rho (up, down):  8.963E-01 0.000E+00

     total cpu time spent up to now is        4.4 secs

     total energy              =       6.26571841 Ry
     estimated scf accuracy    <       0.00000045 Ry

     iteration # 52     ecut=     5.00 Ry     beta= 0.70
     Davidson diagonalization with overlap

---- Real-time Memory Report at c_bands before calling an iterative solver
            54 MiB given to the printing process from OS
             0 MiB allocation reported by mallinfo(arena+hblkhd)
          1252 MiB available memory on the node where the printing process lives
------------------
     ethr =  1.26E-08,  avg # of iterations =  3.0

     negative rho (up, down):  8.964E-01 0.000E+00

     total cpu time spent up to now is        4.5 secs

     total energy              =       6.26574141 Ry
     estimated scf accuracy    <       0.00000029 Ry

     iteration # 53     ecut=     5.00 Ry     beta= 0.70
     Davidson diagonalization with overlap

---- Real-time Memory Report at c_bands before calling an iterative solver
            54 MiB given to the printing process from OS
             0 MiB allocation reported by mallinfo(arena+hblkhd)
          1252 MiB available memory on the node where the printing process lives
------------------
     ethr =  1.26E-08,  avg # of iterations =  4.0

     negative rho (up, down):  8.963E-01 0.000E+00

     total cpu time spent up to now is        4.6 secs

     total energy              =       6.26578297 Ry
     estimated scf accuracy    <       0.00000111 Ry

     iteration # 54     ecut=     5.00 Ry     beta= 0.70
     Davidson diagonalization with overlap

---- Real-time Memory Report at c_bands before calling an iterative solver
            54 MiB given to the printing process from OS
             0 MiB allocation reported by mallinfo(arena+hblkhd)
          1252 MiB available memory on the node where the printing process lives
------------------
     ethr =  1.26E-08,  avg # of iterations =  4.0

     negative rho (up, down):  8.962E-01 0.000E+00

     total cpu time spent up to now is        4.7 secs

     total energy              =       6.26567279 Ry
     estimated scf accuracy    <       0.00000030 Ry

     iteration # 55     ecut=     5.00 Ry     beta= 0.70
     Davidson diagonalization with overlap

---- Real-time Memory Report at c_bands before calling an iterative solver
            54 MiB given to the printing process from OS
             0 MiB allocation reported by mallinfo(arena+hblkhd)
          1252 MiB available memory on the node where the printing process lives
------------------
     ethr =  1.26E-08,  avg # of iterations =  3.0

     negative rho (up, down):  8.963E-01 0.000E+00

     total cpu time spent up to now is        4.8 secs

     total energy              =       6.26569970 Ry
     estimated scf accuracy    <       0.00000039 Ry

     iteration # 56     ecut=     5.00 Ry     beta= 0.70
     Davidson diagonalization with overlap

---- Real-time Memory Report at c_bands before calling an iterative solver
            54 MiB given to the printing process from OS
             0 MiB allocation reported by mallinfo(arena+hblkhd)
          1252 MiB available memory on the node where the printing process lives
------------------
     ethr =  1.26E-08,  avg # of iterations =  3.0

     negative rho (up, down):  8.964E-01 0.000E+00

     total cpu time spent up to now is        4.8 secs

     total energy              =       6.26547563 Ry
     estimated scf accuracy    <       0.00000031 Ry

     iteration # 57     ecut=     5.00 Ry     beta= 0.70
     Davidson diagonalization with overlap

---- Real-time Memory Report at c_bands before calling an iterative solver
            54 MiB given to the printing process from OS
             0 MiB allocation reported by mallinfo(arena+hblkhd)
          1252 MiB available memory on the node where the printing process lives
------------------
     ethr =  1.26E-08,  avg # of iterations =  7.0

     negative rho (up, down):  8.962E-01 0.000E+00

     total cpu time spent up to now is        4.9 secs

     total energy              =       6.26575462 Ry
     estimated scf accuracy    <       0.00000428 Ry

     iteration # 58     ecut=     5.00 Ry     beta= 0.70
     Davidson diagonalization with overlap

---- Real-time Memory Report at c_bands before calling an iterative solver
            54 MiB given to the printing process from OS
             0 MiB allocation reported by mallinfo(arena+hblkhd)
          1252 MiB available memory on the node where the printing process lives
------------------
     ethr =  1.26E-08,  avg # of iterations =  7.0

     negative rho (up, down):  8.962E-01 0.000E+00

     total cpu time spent up to now is        5.0 secs

     total energy              =       6.26599348 Ry
     estimated scf accuracy    <       0.00000024 Ry

     iteration # 59     ecut=     5.00 Ry     beta= 0.70
     Davidson diagonalization with overlap

---- Real-time Memory Report at c_bands before calling an iterative solver
            54 MiB given to the printing process from OS
             0 MiB allocation reported by mallinfo(arena+hblkhd)
          1252 MiB available memory on the node where the printing process lives
------------------
     ethr =  1.21E-08,  avg # of iterations =  3.0

     negative rho (up, down):  8.964E-01 0.000E+00

     total cpu time spent up to now is        5.1 secs

     total energy              =       6.26571277 Ry
     estimated scf accuracy    <       0.00000092 Ry

     iteration # 60     ecut=     5.00 Ry     beta= 0.70
     Davidson diagonalization with overlap

---- Real-time Memory Report at c_bands before calling an iterative solver
            54 MiB given to the printing process from OS
             0 MiB allocation reported by mallinfo(arena+hblkhd)
          1252 MiB available memory on the node where the printing process lives
------------------
     ethr =  1.21E-08,  avg # of iterations =  3.0

     negative rho (up, down):  8.963E-01 0.000E+00

     total cpu time spent up to now is        5.2 secs

     total energy              =       6.26568026 Ry
     estimated scf accuracy    <       0.00000134 Ry

     iteration # 61     ecut=     5.00 Ry     beta= 0.70
     Davidson diagonalization with overlap

---- Real-time Memory Report at c_bands before calling an iterative solver
            54 MiB given to the printing process from OS
             0 MiB allocation reported by mallinfo(arena+hblkhd)
          1252 MiB available memory on the node where the printing process lives
------------------
     ethr =  1.21E-08,  avg # of iterations =  2.0

     negative rho (up, down):  8.962E-01 0.000E+00

     total cpu time spent up to now is        5.2 secs

     total energy              =       6.26593635 Ry
     estimated scf accuracy    <       0.00000112 Ry

     iteration # 62     ecut=     5.00 Ry     beta= 0.70
     Davidson diagonalization with overlap

---- Real-time Memory Report at c_bands before calling an iterative solver
            54 MiB given to the printing process from OS
             0 MiB allocation reported by mallinfo(arena+hblkhd)
          1252 MiB available memory on the node where the printing process lives
------------------
     ethr =  1.21E-08,  avg # of iterations =  4.0

     negative rho (up, down):  8.962E-01 0.000E+00

     total cpu time spent up to now is        5.3 secs

     total energy              =       6.26582601 Ry
     estimated scf accuracy    <       0.00000024 Ry

     iteration # 63     ecut=     5.00 Ry     beta= 0.70
     Davidson diagonalization with overlap

---- Real-time Memory Report at c_bands before calling an iterative solver
            54 MiB given to the printing process from OS
             0 MiB allocation reported by mallinfo(arena+hblkhd)
          1252 MiB available memory on the node where the printing process lives
------------------
     ethr =  1.19E-08,  avg # of iterations =  2.0

     negative rho (up, down):  8.962E-01 0.000E+00

     total cpu time spent up to now is        5.4 secs

     total energy              =       6.26600748 Ry
     estimated scf accuracy    <       0.00000028 Ry

     iteration # 64     ecut=     5.00 Ry     beta= 0.70
     Davidson diagonalization with overlap

---- Real-time Memory Report at c_bands before calling an iterative solver
            54 MiB given to the printing process from OS
             0 MiB allocation reported by mallinfo(arena+hblkhd)
          1252 MiB available memory on the node where the printing process lives
------------------
     ethr =  1.19E-08,  avg # of iterations =  4.0

     negative rho (up, down):  8.962E-01 0.000E+00

     total cpu time spent up to now is        5.5 secs

     total energy              =       6.26588741 Ry
     estimated scf accuracy    <       0.00000188 Ry

     iteration # 65     ecut=     5.00 Ry     beta= 0.70
     Davidson diagonalization with overlap

---- Real-time Memory Report at c_bands before calling an iterative solver
            54 MiB given to the printing process from OS
             0 MiB allocation reported by mallinfo(arena+hblkhd)
          1252 MiB available memory on the node where the printing process lives
------------------
     ethr =  1.19E-08,  avg # of iterations =  2.0

     negative rho (up, down):  8.963E-01 0.000E+00

     total cpu time spent up to now is        5.6 secs

     total energy              =       6.26599958 Ry
     estimated scf accuracy    <       0.00000178 Ry

     iteration # 66     ecut=     5.00 Ry     beta= 0.70
     Davidson diagonalization with overlap

---- Real-time Memory Report at c_bands before calling an iterative solver
            54 MiB given to the printing process from OS
             0 MiB allocation reported by mallinfo(arena+hblkhd)
          1252 MiB available memory on the node where the printing process lives
------------------
     ethr =  1.19E-08,  avg # of iterations =  4.0

     negative rho (up, down):  8.961E-01 0.000E+00

     total cpu time spent up to now is        5.6 secs

     total energy              =       6.26599339 Ry
     estimated scf accuracy    <       0.00000017 Ry

     iteration # 67     ecut=     5.00 Ry     beta= 0.70
     Davidson diagonalization with overlap

---- Real-time Memory Report at c_bands before calling an iterative solver
            54 MiB given to the printing process from OS
             0 MiB allocation reported by mallinfo(arena+hblkhd)
          1252 MiB available memory on the node where the printing process lives
------------------
     ethr =  8.32E-09,  avg # of iterations =  9.0

     negative rho (up, down):  8.956E-01 0.000E+00

     total cpu time spent up to now is        5.7 secs

     total energy              =       6.26564848 Ry
     estimated scf accuracy    <       0.00000255 Ry

     iteration # 68     ecut=     5.00 Ry     beta= 0.70
     Davidson diagonalization with overlap

---- Real-time Memory Report at c_bands before calling an iterative solver
            54 MiB given to the printing process from OS
             0 MiB allocation reported by mallinfo(arena+hblkhd)
          1252 MiB available memory on the node where the printing process lives
------------------
     ethr =  8.32E-09,  avg # of iterations =  7.0

     negative rho (up, down):  8.965E-01 0.000E+00

     total cpu time spent up to now is        5.8 secs

     total energy              =       6.26620126 Ry
     estimated scf accuracy    <       0.00000225 Ry

     iteration # 69     ecut=     5.00 Ry     beta= 0.70
     Davidson diagonalization with overlap

---- Real-time Memory Report at c_bands before calling an iterative solver
            54 MiB given to the printing process from OS
             0 MiB allocation reported by mallinfo(arena+hblkhd)
          1252 MiB available memory on the node where the printing process lives
------------------
     ethr =  8.32E-09,  avg # of iterations =  7.0

     negative rho (up, down):  8.966E-01 0.000E+00

     total cpu time spent up to now is        5.9 secs

     total energy              =       6.26607543 Ry
     estimated scf accuracy    <       0.00000057 Ry

     iteration # 70     ecut=     5.00 Ry     beta= 0.70
     Davidson diagonalization with overlap

---- Real-time Memory Report at c_bands before calling an iterative solver
            54 MiB given to the printing process from OS
             0 MiB allocation reported by mallinfo(arena+hblkhd)
          1252 MiB available memory on the node where the printing process lives
------------------
     ethr =  8.32E-09,  avg # of iterations =  3.0

     negative rho (up, down):  8.966E-01 0.000E+00

     total cpu time spent up to now is        6.0 secs

     total energy              =       6.26604836 Ry
     estimated scf accuracy    <       0.00000029 Ry

     iteration # 71     ecut=     5.00 Ry     beta= 0.70
     Davidson diagonalization with overlap

---- Real-time Memory Report at c_bands before calling an iterative solver
            54 MiB given to the printing process from OS
             0 MiB allocation reported by mallinfo(arena+hblkhd)
          1252 MiB available memory on the node where the printing process lives
------------------
     ethr =  8.32E-09,  avg # of iterations =  2.0

     negative rho (up, down):  8.966E-01 0.000E+00

     total cpu time spent up to now is        6.1 secs

     total energy              =       6.26605561 Ry
     estimated scf accuracy    <       0.00000028 Ry

     iteration # 72     ecut=     5.00 Ry     beta= 0.70
     Davidson diagonalization with overlap

---- Real-time Memory Report at c_bands before calling an iterative solver
            54 MiB given to the printing process from OS
             0 MiB allocation reported by mallinfo(arena+hblkhd)
          1252 MiB available memory on the node where the printing process lives
------------------
     ethr =  8.32E-09,  avg # of iterations =  2.0

     negative rho (up, down):  8.965E-01 0.000E+00

     total cpu time spent up to now is        6.1 secs

     total energy              =       6.26603887 Ry
     estimated scf accuracy    <       0.00000035 Ry

     iteration # 73     ecut=     5.00 Ry     beta= 0.70
     Davidson diagonalization with overlap

---- Real-time Memory Report at c_bands before calling an iterative solver
            54 MiB given to the printing process from OS
             0 MiB allocation reported by mallinfo(arena+hblkhd)
          1252 MiB available memory on the node where the printing process lives
------------------
     ethr =  8.32E-09,  avg # of iterations =  2.0

     negative rho (up, down):  8.963E-01 0.000E+00

     total cpu time spent up to now is        6.2 secs

     total energy              =       6.26599553 Ry
     estimated scf accuracy    <       0.00000034 Ry

     iteration # 74     ecut=     5.00 Ry     beta= 0.70
     Davidson diagonalization with overlap

---- Real-time Memory Report at c_bands before calling an iterative solver
            54 MiB given to the printing process from OS
             0 MiB allocation reported by mallinfo(arena+hblkhd)
          1252 MiB available memory on the node where the printing process lives
------------------
     ethr =  8.32E-09,  avg # of iterations =  7.0

     negative rho (up, down):  8.965E-01 0.000E+00

     total cpu time spent up to now is        6.3 secs

     total energy              =       6.26618830 Ry
     estimated scf accuracy    <       0.00000308 Ry

     iteration # 75     ecut=     5.00 Ry     beta= 0.70
     Davidson diagonalization with overlap

---- Real-time Memory Report at c_bands before calling an iterative solver
            54 MiB given to the printing process from OS
             0 MiB allocation reported by mallinfo(arena+hblkhd)
          1252 MiB available memory on the node where the printing process lives
------------------
     ethr =  8.32E-09,  avg # of iterations =  7.0

     negative rho (up, down):  8.966E-01 0.000E+00

     total cpu time spent up to now is        6.4 secs

     total energy              =       6.26574773 Ry
     estimated scf accuracy    <       0.00000069 Ry

     iteration # 76     ecut=     5.00 Ry     beta= 0.70
     Davidson diagonalization with overlap

---- Real-time Memory Report at c_bands before calling an iterative solver
            54 MiB given to the printing process from OS
             0 MiB allocation reported by mallinfo(arena+hblkhd)
          1252 MiB available memory on the node where the printing process lives
------------------
     ethr =  8.32E-09,  avg # of iterations =  3.0

     negative rho (up, down):  8.968E-01 0.000E+00

     total cpu time spent up to now is        6.5 secs

     total energy              =       6.26572209 Ry
     estimated scf accuracy    <       0.00000095 Ry

     iteration # 77     ecut=     5.00 Ry     beta= 0.70
     Davidson diagonalization with overlap

---- Real-time Memory Report at c_bands before calling an iterative solver
            54 MiB given to the printing process from OS
             0 MiB allocation reported by mallinfo(arena+hblkhd)
          1252 MiB available memory on the node where the printing process lives
------------------
     ethr =  8.32E-09,  avg # of iterations =  5.0

     negative rho (up, down):  8.970E-01 0.000E+00

     total cpu time spent up to now is        6.5 secs

     total energy              =       6.26610736 Ry
     estimated scf accuracy    <       0.00000265 Ry

     iteration # 78     ecut=     5.00 Ry     beta= 0.70
     Davidson diagonalization with overlap

---- Real-time Memory Report at c_bands before calling an iterative solver
            54 MiB given to the printing process from OS
             0 MiB allocation reported by mallinfo(arena+hblkhd)
          1252 MiB available memory on the node where the printing process lives
------------------
     ethr =  8.32E-09,  avg # of iterations =  4.0

     negative rho (up, down):  8.961E-01 0.000E+00

     total cpu time spent up to now is        6.6 secs

     total energy              =       6.26567104 Ry
     estimated scf accuracy    <       0.00000184 Ry

     iteration # 79     ecut=     5.00 Ry     beta= 0.70
     Davidson diagonalization with overlap

---- Real-time Memory Report at c_bands before calling an iterative solver
            54 MiB given to the printing process from OS
             0 MiB allocation reported by mallinfo(arena+hblkhd)
          1252 MiB available memory on the node where the printing process lives
------------------
     ethr =  8.32E-09,  avg # of iterations =  4.0

     negative rho (up, down):  8.961E-01 0.000E+00

     total cpu time spent up to now is        6.7 secs

     total energy              =       6.26565212 Ry
     estimated scf accuracy    <       0.00000083 Ry

     iteration # 80     ecut=     5.00 Ry     beta= 0.70
     Davidson diagonalization with overlap

---- Real-time Memory Report at c_bands before calling an iterative solver
            54 MiB given to the printing process from OS
             0 MiB allocation reported by mallinfo(arena+hblkhd)
          1252 MiB available memory on the node where the printing process lives
------------------
     ethr =  8.32E-09,  avg # of iterations =  3.0

     negative rho (up, down):  8.964E-01 0.000E+00

     total cpu time spent up to now is        6.8 secs

     total energy              =       6.26587393 Ry
     estimated scf accuracy    <       0.00000042 Ry

     iteration # 81     ecut=     5.00 Ry     beta= 0.70
     Davidson diagonalization with overlap

---- Real-time Memory Report at c_bands before calling an iterative solver
            54 MiB given to the printing process from OS
             0 MiB allocation reported by mallinfo(arena+hblkhd)
          1252 MiB available memory on the node where the printing process lives
------------------
     ethr =  8.32E-09,  avg # of iterations =  3.0

     negative rho (up, down):  8.964E-01 0.000E+00

     total cpu time spent up to now is        6.8 secs

     total energy              =       6.26586719 Ry
     estimated scf accuracy    <       0.00000016 Ry

     iteration # 82     ecut=     5.00 Ry     beta= 0.70
     Davidson diagonalization with overlap

---- Real-time Memory Report at c_bands before calling an iterative solver
            54 MiB given to the printing process from OS
             0 MiB allocation reported by mallinfo(arena+hblkhd)
          1252 MiB available memory on the node where the printing process lives
------------------
     ethr =  7.92E-09,  avg # of iterations =  1.0

     negative rho (up, down):  8.963E-01 0.000E+00

     total cpu time spent up to now is        6.9 secs

     total energy              =       6.26584851 Ry
     estimated scf accuracy    <       0.00000015 Ry

     iteration # 83     ecut=     5.00 Ry     beta= 0.70
     Davidson diagonalization with overlap

---- Real-time Memory Report at c_bands before calling an iterative solver
            54 MiB given to the printing process from OS
             0 MiB allocation reported by mallinfo(arena+hblkhd)
          1252 MiB available memory on the node where the printing process lives
------------------
     ethr =  7.75E-09,  avg # of iterations =  2.0

     negative rho (up, down):  8.960E-01 0.000E+00

     total cpu time spent up to now is        7.0 secs

     total energy              =       6.26580551 Ry
     estimated scf accuracy    <       0.00000013 Ry

     iteration # 84     ecut=     5.00 Ry     beta= 0.70
     Davidson diagonalization with overlap

---- Real-time Memory Report at c_bands before calling an iterative solver
            54 MiB given to the printing process from OS
             0 MiB allocation reported by mallinfo(arena+hblkhd)
          1252 MiB available memory on the node where the printing process lives
------------------
     ethr =  6.56E-09,  avg # of iterations =  3.0

     negative rho (up, down):  8.961E-01 0.000E+00

     total cpu time spent up to now is        7.1 secs

     total energy              =       6.26572160 Ry
     estimated scf accuracy    <       0.00000043 Ry

     iteration # 85     ecut=     5.00 Ry     beta= 0.70
     Davidson diagonalization with overlap

---- Real-time Memory Report at c_bands before calling an iterative solver
            54 MiB given to the printing process from OS
             0 MiB allocation reported by mallinfo(arena+hblkhd)
          1252 MiB available memory on the node where the printing process lives
------------------
     ethr =  6.56E-09,  avg # of iterations =  5.0

     negative rho (up, down):  8.960E-01 0.000E+00

     total cpu time spent up to now is        7.1 secs

     total energy              =       6.26576776 Ry
     estimated scf accuracy    <       0.00000141 Ry

     iteration # 86     ecut=     5.00 Ry     beta= 0.70
     Davidson diagonalization with overlap

---- Real-time Memory Report at c_bands before calling an iterative solver
            54 MiB given to the printing process from OS
             0 MiB allocation reported by mallinfo(arena+hblkhd)
          1252 MiB available memory on the node where the printing process lives
------------------
     ethr =  6.56E-09,  avg # of iterations =  4.0

     negative rho (up, down):  8.962E-01 0.000E+00

     total cpu time spent up to now is        7.2 secs

     total energy              =       6.26599639 Ry
     estimated scf accuracy    <       0.00000014 Ry

     iteration # 87     ecut=     5.00 Ry     beta= 0.70
     Davidson diagonalization with overlap

---- Real-time Memory Report at c_bands before calling an iterative solver
            54 MiB given to the printing process from OS
             0 MiB allocation reported by mallinfo(arena+hblkhd)
          1252 MiB available memory on the node where the printing process lives
------------------
     ethr =  6.56E-09,  avg # of iterations =  4.0

     negative rho (up, down):  8.957E-01 0.000E+00

     total cpu time spent up to now is        7.3 secs

     total energy              =       6.26572798 Ry
     estimated scf accuracy    <       0.00000152 Ry

     iteration # 88     ecut=     5.00 Ry     beta= 0.70
     Davidson diagonalization with overlap

---- Real-time Memory Report at c_bands before calling an iterative solver
            54 MiB given to the printing process from OS
             0 MiB allocation reported by mallinfo(arena+hblkhd)
          1252 MiB available memory on the node where the printing process lives
------------------
     ethr =  6.56E-09,  avg # of iterations =  4.0

     negative rho (up, down):  8.953E-01 0.000E+00

     total cpu time spent up to now is        7.4 secs

     total energy              =       6.26556577 Ry
     estimated scf accuracy    <       0.00000037 Ry

     iteration # 89     ecut=     5.00 Ry     beta= 0.70
     Davidson diagonalization with overlap

---- Real-time Memory Report at c_bands before calling an iterative solver
            54 MiB given to the printing process from OS
             0 MiB allocation reported by mallinfo(arena+hblkhd)
          1252 MiB available memory on the node where the printing process lives
------------------
     ethr =  6.56E-09,  avg # of iterations =  3.0

     negative rho (up, down):  8.954E-01 0.000E+00

     total cpu time spent up to now is        7.5 secs

     total energy              =       6.26560259 Ry
     estimated scf accuracy    <       0.00000069 Ry

     iteration # 90     ecut=     5.00 Ry     beta= 0.70
     Davidson diagonalization with overlap

---- Real-time Memory Report at c_bands before calling an iterative solver
            54 MiB given to the printing process from OS
             0 MiB allocation reported by mallinfo(arena+hblkhd)
          1252 MiB available memory on the node where the printing process lives
------------------
     ethr =  6.56E-09,  avg # of iterations =  3.0

     negative rho (up, down):  8.950E-01 0.000E+00

     total cpu time spent up to now is        7.5 secs

     total energy              =       6.26531800 Ry
     estimated scf accuracy    <       0.00000049 Ry

     iteration # 91     ecut=     5.00 Ry     beta= 0.70
     Davidson diagonalization with overlap

---- Real-time Memory Report at c_bands before calling an iterative solver
            54 MiB given to the printing process from OS
             0 MiB allocation reported by mallinfo(arena+hblkhd)
          1252 MiB available memory on the node where the printing process lives
------------------
     ethr =  6.56E-09,  avg # of iterations =  4.0

     negative rho (up, down):  8.951E-01 0.000E+00

     total cpu time spent up to now is        7.6 secs

     total energy              =       6.26524045 Ry
     estimated scf accuracy    <       0.00000335 Ry

     iteration # 92     ecut=     5.00 Ry     beta= 0.70
     Davidson diagonalization with overlap

---- Real-time Memory Report at c_bands before calling an iterative solver
            54 MiB given to the printing process from OS
             0 MiB allocation reported by mallinfo(arena+hblkhd)
          1252 MiB available memory on the node where the printing process lives
------------------
     ethr =  6.56E-09,  avg # of iterations =  2.0

     negative rho (up, down):  8.965E-01 0.000E+00

     total cpu time spent up to now is        7.7 secs

     total energy              =       6.26611312 Ry
     estimated scf accuracy    <       0.00000328 Ry

     iteration # 93     ecut=     5.00 Ry     beta= 0.70
     Davidson diagonalization with overlap

---- Real-time Memory Report at c_bands before calling an iterative solver
            54 MiB given to the printing process from OS
             0 MiB allocation reported by mallinfo(arena+hblkhd)
          1252 MiB available memory on the node where the printing process lives
------------------
     ethr =  6.56E-09,  avg # of iterations =  4.0

     negative rho (up, down):  8.963E-01 0.000E+00

     total cpu time spent up to now is        7.8 secs

     total energy              =       6.26570988 Ry
     estimated scf accuracy    <       0.00000061 Ry

     iteration # 94     ecut=     5.00 Ry     beta= 0.70
     Davidson diagonalization with overlap

---- Real-time Memory Report at c_bands before calling an iterative solver
            54 MiB given to the printing process from OS
             0 MiB allocation reported by mallinfo(arena+hblkhd)
          1252 MiB available memory on the node where the printing process lives
------------------
     ethr =  6.56E-09,  avg # of iterations =  3.0

     negative rho (up, down):  8.961E-01 0.000E+00

     total cpu time spent up to now is        7.8 secs

     total energy              =       6.26570640 Ry
     estimated scf accuracy    <       0.00000047 Ry

     iteration # 95     ecut=     5.00 Ry     beta= 0.70
     Davidson diagonalization with overlap

---- Real-time Memory Report at c_bands before calling an iterative solver
            54 MiB given to the printing process from OS
             0 MiB allocation reported by mallinfo(arena+hblkhd)
          1252 MiB available memory on the node where the printing process lives
------------------
     ethr =  6.56E-09,  avg # of iterations =  4.0

     negative rho (up, down):  8.960E-01 0.000E+00

     total cpu time spent up to now is        7.9 secs

     total energy              =       6.26563337 Ry
     estimated scf accuracy    <       0.00000022 Ry

     iteration # 96     ecut=     5.00 Ry     beta= 0.70
     Davidson diagonalization with overlap

---- Real-time Memory Report at c_bands before calling an iterative solver
            54 MiB given to the printing process from OS
             0 MiB allocation reported by mallinfo(arena+hblkhd)
          1252 MiB available memory on the node where the printing process lives
------------------
     ethr =  6.56E-09,  avg # of iterations =  3.0

     negative rho (up, down):  8.960E-01 0.000E+00

     total cpu time spent up to now is        8.0 secs

     total energy              =       6.26563342 Ry
     estimated scf accuracy    <       0.00000044 Ry

     iteration # 97     ecut=     5.00 Ry     beta= 0.70
     Davidson diagonalization with overlap

---- Real-time Memory Report at c_bands before calling an iterative solver
            54 MiB given to the printing process from OS
             0 MiB allocation reported by mallinfo(arena+hblkhd)
          1252 MiB available memory on the node where the printing process lives
------------------
     ethr =  6.56E-09,  avg # of iterations =  2.0

     negative rho (up, down):  8.962E-01 0.000E+00

     total cpu time spent up to now is        8.1 secs

     total energy              =       6.26574360 Ry
     estimated scf accuracy    <       0.00000039 Ry

     iteration # 98     ecut=     5.00 Ry     beta= 0.70
     Davidson diagonalization with overlap

---- Real-time Memory Report at c_bands before calling an iterative solver
            54 MiB given to the printing process from OS
             0 MiB allocation reported by mallinfo(arena+hblkhd)
          1252 MiB available memory on the node where the printing process lives
------------------
     ethr =  6.56E-09,  avg # of iterations =  4.0

     negative rho (up, down):  8.957E-01 0.000E+00

     total cpu time spent up to now is        8.1 secs

     total energy              =       6.26564000 Ry
     estimated scf accuracy    <       0.00000026 Ry

     iteration # 99     ecut=     5.00 Ry     beta= 0.70
     Davidson diagonalization with overlap

---- Real-time Memory Report at c_bands before calling an iterative solver
            54 MiB given to the printing process from OS
             0 MiB allocation reported by mallinfo(arena+hblkhd)
          1252 MiB available memory on the node where the printing process lives
------------------
     c_bands:  1 eigenvalues not converged
     ethr =  6.56E-09,  avg # of iterations = 20.0

     negative rho (up, down):  8.963E-01 0.000E+00

     total cpu time spent up to now is        8.3 secs

     total energy              =       6.26610391 Ry
     estimated scf accuracy    <       0.00001025 Ry

     iteration #100     ecut=     5.00 Ry     beta= 0.70
     Davidson diagonalization with overlap

---- Real-time Memory Report at c_bands before calling an iterative solver
            54 MiB given to the printing process from OS
             0 MiB allocation reported by mallinfo(arena+hblkhd)
          1252 MiB available memory on the node where the printing process lives
------------------
     ethr =  6.56E-09,  avg # of iterations =  8.0

     negative rho (up, down):  8.963E-01 0.000E+00

     total cpu time spent up to now is        8.4 secs

     total energy              =       6.26600966 Ry
     estimated scf accuracy    <       0.00000143 Ry

     End of self-consistent calculation

     convergence NOT achieved after 100 iterations: stopping

     Writing config to output data dir ./.save/
     Message from routine punch:
     wavefunctions written to file

     init_run     :      0.07s CPU      0.08s WALL (       1 calls)
     electrons    :      8.23s CPU      8.28s WALL (       1 calls)

     Called by init_run:
     wfcinit      :      0.01s CPU      0.01s WALL (       1 calls)
     wfcinit:atom :      0.00s CPU      0.00s WALL (       1 calls)
     wfcinit:wfcr :      0.00s CPU      0.00s WALL (       1 calls)
     potinit      :      0.04s CPU      0.05s WALL (       1 calls)
     hinit0       :      0.01s CPU      0.01s WALL (       1 calls)

     Called by electrons:
     c_bands      :      2.30s CPU      2.32s WALL (     100 calls)
     sum_band     :      0.79s CPU      0.81s WALL (     100 calls)
     v_of_rho     :      3.97s CPU      3.99s WALL (     101 calls)
     v_h          :      0.20s CPU      0.20s WALL (     101 calls)
     v_xc         :      3.77s CPU      3.78s WALL (     101 calls)
     newd         :      0.26s CPU      0.26s WALL (     101 calls)
     mix_rho      :      0.85s CPU      0.86s WALL (     100 calls)

     Called by c_bands:
     init_us_2    :      0.03s CPU      0.03s WALL (     201 calls)
     init_us_2:cp :      0.03s CPU      0.03s WALL (     201 calls)
     cegterg      :      2.28s CPU      2.30s WALL (     100 calls)

     Called by sum_band:
     sum_band:wei :      0.00s CPU      0.00s WALL (     100 calls)
     sum_band:loo :      0.23s CPU      0.23s WALL (     100 calls)
     sum_band:buf :      0.00s CPU      0.00s WALL (     100 calls)
     sum_band:ini :      0.01s CPU      0.01s WALL (     100 calls)
     sum_band:cal :      0.00s CPU      0.00s WALL (     100 calls)
     sum_band:bec :      0.00s CPU      0.00s WALL (     100 calls)
     addusdens    :      0.07s CPU      0.07s WALL (     100 calls)
     addusd:skk   :      0.03s CPU      0.03s WALL (     100 calls)
     addusd:dgemm :      0.02s CPU      0.02s WALL (     100 calls)
     addusd:qvan2 :      0.02s CPU      0.02s WALL (     100 calls)

     Called by *egterg:
     cdiaghg      :      0.01s CPU      0.01s WALL (     620 calls)
     cegterg:over :      0.03s CPU      0.03s WALL (     520 calls)
     cegterg:upda :      0.03s CPU      0.03s WALL (     520 calls)
     cegterg:last :      0.06s CPU      0.06s WALL (     424 calls)
     h_psi        :      2.10s CPU      2.12s WALL (     621 calls)
     s_psi        :      0.01s CPU      0.01s WALL (     621 calls)
     g_psi        :      0.01s CPU      0.01s WALL (     520 calls)

     Called by h_psi:
     h_psi:calbec :      0.02s CPU      0.02s WALL (     621 calls)
     vloc_psi     :      2.06s CPU      2.08s WALL (     621 calls)
     add_vuspsi   :      0.01s CPU      0.01s WALL (     621 calls)

     General routines
     calbec       :      0.02s CPU      0.02s WALL (     721 calls)
     fft          :      1.73s CPU      1.73s WALL (    1111 calls)
     ffts         :      0.15s CPU      0.16s WALL (     100 calls)
     fftw         :      2.10s CPU      2.12s WALL (    2154 calls)
     davcio       :      0.00s CPU      0.01s WALL (      19 calls)


     PWSCF        :      8.32s CPU      8.39s WALL


   This run was terminated on:  22:13:59  28Feb2022            

=------------------------------------------------------------------------------=
   JOB DONE.
=------------------------------------------------------------------------------=
