
     Program PWSCF v.7.0 starts on 28Feb2022 at 22:15:11 

     This program is part of the open-source Quantum ESPRESSO suite
     for quantum simulation of materials; please cite
         "P. Giannozzi et al., J. Phys.:Condens. Matter 21 395502 (2009);
         "P. Giannozzi et al., J. Phys.:Condens. Matter 29 465901 (2017);
         "P. Giannozzi et al., J. Chem. Phys. 152 154105 (2020);
          URL http://www.quantum-espresso.org", 
     in publications or presentations arising from this work. More details at
     http://www.quantum-espresso.org/quote

     Serial version
     1309 MiB available memory on the printing compute node when the environment starts

     Waiting for input...
     Reading input from standard input

     Current dimensions of program PWSCF are:
     Max number of different atomic species (ntypx) = 10
     Max number of k-points (npk) =  40000
     Max angular momentum in pseudopotentials (lmaxx) =  4

    ============================================================
    |  pseudopotential report for atomic species:  1           |
    |        pseudo potential version   7   3   2              |
    ------------------------------------------------------------
    |  hydrogen            PBE                  exchange-corr  |
    |  z =   1.    zv( 1) =   1.    exfact =   5.00000         |
    |  ifpcor =  0           atomic energy =  -0.91772 Ry      |
    |  index    orbital      occupation    energy              |
    |    1        100           1.00       -0.48               |
    |  rinner =  0.5000                                        |
    |    new generation scheme:                                |
    |    nbeta =  1     kkbeta =  271     rcloc =    0.6000    |
    |    ibeta    l     epsilon   rcut                         |
    |      1       0      -0.48   0.80                         |
    ============================================================

     IMPORTANT: XC functional enforced from input :
     Exchange-correlation= BLYP
                           (   1   3   1   3   0   0   0)
     Any further DFT definition will be discarded
     Please, verify this is what you really want


     G-vector sticks info
     --------------------
     sticks:   dense  smooth     PW     G-vecs:    dense   smooth      PW
     Sum        1433    1433    421                40651    40651    6451

     Using Slab Decomposition



     bravais-lattice index     =            1
     lattice parameter (alat)  =      30.0000  a.u.
     unit-cell volume          =   27000.0000 (a.u.)^3
     number of atoms/cell      =            2
     number of atomic types    =            1
     number of electrons       =         2.00
     number of Kohn-Sham states=            2
     kinetic-energy cutoff     =       5.0000  Ry
     charge density cutoff     =      20.0000  Ry
     scf convergence threshold =      1.0E-08
     mixing beta               =       0.7000
     number of iterations used =            8  plain     mixing
     Exchange-correlation= BLYP
                           (   1   3   1   3   0   0   0)

     celldm(1)=  30.000000  celldm(2)=   0.000000  celldm(3)=   0.000000
     celldm(4)=   0.000000  celldm(5)=   0.000000  celldm(6)=   0.000000

     crystal axes: (cart. coord. in units of alat)
               a(1) = (   1.000000   0.000000   0.000000 )  
               a(2) = (   0.000000   1.000000   0.000000 )  
               a(3) = (   0.000000   0.000000   1.000000 )  

     reciprocal axes: (cart. coord. in units 2 pi/alat)
               b(1) = (  1.000000  0.000000  0.000000 )  
               b(2) = (  0.000000  1.000000  0.000000 )  
               b(3) = (  0.000000  0.000000  1.000000 )  


     PseudoPot. # 1 for hy read from file:
     /root/q-e/pseudo/H_US.van
     MD5 check sum: a9a9bfe98ff56cf4de197d71fc46bb44
     Pseudo is Ultrasoft, Zval =  1.0
     Generated by Vanderbilt code, v. 7.3.2
     Using radial grid of  399 points,  1 beta functions with: 
                l(1) =   0
     Q(r) pseudized with  8 coefficients,  rinner =    0.500

     atomic species   valence    mass     pseudopotential
        H              1.00     1.00784     hy( 1.00)

      8 Sym. Ops. (no inversion) found


                                    s                        frac. trans.

      isym =  1     identity                                     

 cryst.   s( 1) = (     1          0          0      )
                  (     0          1          0      )
                  (     0          0          1      )

 cart.    s( 1) = (  1.0000000  0.0000000  0.0000000 )
                  (  0.0000000  1.0000000  0.0000000 )
                  (  0.0000000  0.0000000  1.0000000 )


      isym =  2     180 deg rotation - cart. axis [1,0,0]        

 cryst.   s( 2) = (     1          0          0      )
                  (     0         -1          0      )
                  (     0          0         -1      )

 cart.    s( 2) = (  1.0000000  0.0000000  0.0000000 )
                  (  0.0000000 -1.0000000  0.0000000 )
                  (  0.0000000  0.0000000 -1.0000000 )


      isym =  3      90 deg rotation - cart. axis [-1,0,0]       

 cryst.   s( 3) = (     1          0          0      )
                  (     0          0         -1      )
                  (     0          1          0      )

 cart.    s( 3) = (  1.0000000  0.0000000  0.0000000 )
                  (  0.0000000  0.0000000  1.0000000 )
                  (  0.0000000 -1.0000000  0.0000000 )


      isym =  4      90 deg rotation - cart. axis [1,0,0]        

 cryst.   s( 4) = (     1          0          0      )
                  (     0          0          1      )
                  (     0         -1          0      )

 cart.    s( 4) = (  1.0000000  0.0000000  0.0000000 )
                  (  0.0000000  0.0000000 -1.0000000 )
                  (  0.0000000  1.0000000  0.0000000 )


      isym =  5     inv. 180 deg rotation - cart. axis [0,0,1]   

 cryst.   s( 5) = (     1          0          0      )
                  (     0          1          0      )
                  (     0          0         -1      )

 cart.    s( 5) = (  1.0000000  0.0000000  0.0000000 )
                  (  0.0000000  1.0000000  0.0000000 )
                  (  0.0000000  0.0000000 -1.0000000 )


      isym =  6     inv. 180 deg rotation - cart. axis [0,1,0]   

 cryst.   s( 6) = (     1          0          0      )
                  (     0         -1          0      )
                  (     0          0          1      )

 cart.    s( 6) = (  1.0000000  0.0000000  0.0000000 )
                  (  0.0000000 -1.0000000  0.0000000 )
                  (  0.0000000  0.0000000  1.0000000 )


      isym =  7     inv. 180 deg rotation - cart. axis [0,1,1]   

 cryst.   s( 7) = (     1          0          0      )
                  (     0          0         -1      )
                  (     0         -1          0      )

 cart.    s( 7) = (  1.0000000  0.0000000  0.0000000 )
                  (  0.0000000  0.0000000 -1.0000000 )
                  (  0.0000000 -1.0000000  0.0000000 )


      isym =  8     inv. 180 deg rotation - cart. axis [0,1,-1]  

 cryst.   s( 8) = (     1          0          0      )
                  (     0          0          1      )
                  (     0          1          0      )

 cart.    s( 8) = (  1.0000000  0.0000000  0.0000000 )
                  (  0.0000000  0.0000000  1.0000000 )
                  (  0.0000000  1.0000000  0.0000000 )


     point group C_4v (4mm) 
     there are  5 classes
     the character table:

       E     2C4   C2    2s_v  2s_d 
A_1    1.00  1.00  1.00  1.00  1.00
A_2    1.00  1.00  1.00 -1.00 -1.00
B_1    1.00 -1.00  1.00  1.00 -1.00
B_2    1.00 -1.00  1.00 -1.00  1.00
E      2.00  0.00 -2.00  0.00  0.00

     the symmetry operations in each class and the name of the first element:

     E        1
          identity                                               
     2C4      3    4
           90 deg rotation - cart. axis [-1,0,0]                 
     C2       2
          180 deg rotation - cart. axis [1,0,0]                  
     2s_v     5    6
          inv. 180 deg rotation - cart. axis [0,0,1]             
     2s_d     7    8
          inv. 180 deg rotation - cart. axis [0,1,1]             

   Cartesian axes

     site n.     atom                  positions (alat units)
         1           H   tau(   1) = (   0.0000000   0.0000000   0.0000000  )
         2           H   tau(   2) = (   0.3149544   0.0000000   0.0000000  )

   Crystallographic axes

     site n.     atom                  positions (cryst. coord.)
         1           H   tau(   1) = (  0.0000000  0.0000000  0.0000000  )
         2           H   tau(   2) = (  0.3149544  0.0000000  0.0000000  )

     number of k points=     1
                       cart. coord. in units 2pi/alat
        k(    1) = (  -0.5000000  -0.5000000  -0.5000000), wk =   2.0000000

                       cryst. coord.
        k(    1) = (  -0.5000000  -0.5000000  -0.5000000), wk =   2.0000000

     Dense  grid:    40651 G-vectors     FFT dimensions: (  45,  45,  45)

     Dynamical RAM for                 wfc:       0.16 MB

     Dynamical RAM for     wfc (w. buffer):       0.16 MB

     Dynamical RAM for           str. fact:       0.62 MB

     Dynamical RAM for           local pot:       0.00 MB

     Dynamical RAM for          nlocal pot:       0.16 MB

     Dynamical RAM for                qrad:       0.00 MB

     Dynamical RAM for          rho,v,vnew:       3.95 MB

     Dynamical RAM for               rhoin:       1.32 MB

     Dynamical RAM for            rho*nmix:       9.92 MB

     Dynamical RAM for           G-vectors:       2.64 MB

     Dynamical RAM for          h,s,v(r/c):       0.00 MB

     Dynamical RAM for          <psi|beta>:       0.00 MB

     Dynamical RAM for                 psi:       0.31 MB

     Dynamical RAM for                hpsi:       0.31 MB

     Dynamical RAM for                spsi:       0.31 MB

     Dynamical RAM for      wfcinit/wfcrot:       0.31 MB

     Dynamical RAM for           addusdens:       3.72 MB

     Estimated static dynamical RAM per process >      13.55 MB

     Estimated max dynamical RAM per process >      27.20 MB

     Initial potential from superposition of free atoms

     starting charge       2.0000, renormalised to       2.0000

     negative rho (up, down):  5.586E-01 0.000E+00
     Starting wfcs are    2 randomized atomic wfcs

     total cpu time spent up to now is        0.1 secs

     Self-consistent Calculation

     iteration #  1     ecut=     5.00 Ry     beta= 0.70
     Davidson diagonalization with overlap

---- Real-time Memory Report at c_bands before calling an iterative solver
            40 MiB given to the printing process from OS
             0 MiB allocation reported by mallinfo(arena+hblkhd)
          1289 MiB available memory on the node where the printing process lives
------------------
     ethr =  1.00E-02,  avg # of iterations =  1.0

     negative rho (up, down):  2.887E-01 0.000E+00

     total cpu time spent up to now is        0.2 secs

     total energy              =      -1.61842843 Ry
     estimated scf accuracy    <       0.02204997 Ry

     iteration #  2     ecut=     5.00 Ry     beta= 0.70
     Davidson diagonalization with overlap

---- Real-time Memory Report at c_bands before calling an iterative solver
            46 MiB given to the printing process from OS
             0 MiB allocation reported by mallinfo(arena+hblkhd)
          1276 MiB available memory on the node where the printing process lives
------------------
     ethr =  1.10E-03,  avg # of iterations =  1.0

     negative rho (up, down):  2.820E-01 0.000E+00

     total cpu time spent up to now is        0.2 secs

     total energy              =      -1.62079193 Ry
     estimated scf accuracy    <       0.94346266 Ry

     iteration #  3     ecut=     5.00 Ry     beta= 0.70
     Davidson diagonalization with overlap

---- Real-time Memory Report at c_bands before calling an iterative solver
            47 MiB given to the printing process from OS
             0 MiB allocation reported by mallinfo(arena+hblkhd)
          1275 MiB available memory on the node where the printing process lives
------------------
     ethr =  1.10E-03,  avg # of iterations =  1.0

     negative rho (up, down):  1.894E-01 0.000E+00

     total cpu time spent up to now is        0.3 secs

     total energy              =      -1.65126261 Ry
     estimated scf accuracy    <       0.16296243 Ry

     iteration #  4     ecut=     5.00 Ry     beta= 0.70
     Davidson diagonalization with overlap

---- Real-time Memory Report at c_bands before calling an iterative solver
            48 MiB given to the printing process from OS
             0 MiB allocation reported by mallinfo(arena+hblkhd)
          1273 MiB available memory on the node where the printing process lives
------------------
     ethr =  1.10E-03,  avg # of iterations =  1.0

     negative rho (up, down):  1.854E-01 0.000E+00

     total cpu time spent up to now is        0.4 secs

     total energy              =      -1.66145596 Ry
     estimated scf accuracy    <       0.85510634 Ry

     iteration #  5     ecut=     5.00 Ry     beta= 0.70
     Davidson diagonalization with overlap

---- Real-time Memory Report at c_bands before calling an iterative solver
            50 MiB given to the printing process from OS
             0 MiB allocation reported by mallinfo(arena+hblkhd)
          1272 MiB available memory on the node where the printing process lives
------------------
     ethr =  1.10E-03,  avg # of iterations =  1.0

     negative rho (up, down):  1.861E-01 0.000E+00

     total cpu time spent up to now is        0.4 secs

     total energy              =      -1.66516075 Ry
     estimated scf accuracy    <       0.12311286 Ry

     iteration #  6     ecut=     5.00 Ry     beta= 0.70
     Davidson diagonalization with overlap

---- Real-time Memory Report at c_bands before calling an iterative solver
            51 MiB given to the printing process from OS
             0 MiB allocation reported by mallinfo(arena+hblkhd)
          1271 MiB available memory on the node where the printing process lives
------------------
     ethr =  1.10E-03,  avg # of iterations =  1.0

     negative rho (up, down):  1.863E-01 0.000E+00

     total cpu time spent up to now is        0.5 secs

     total energy              =      -1.66623642 Ry
     estimated scf accuracy    <       0.05102353 Ry

     iteration #  7     ecut=     5.00 Ry     beta= 0.70
     Davidson diagonalization with overlap

---- Real-time Memory Report at c_bands before calling an iterative solver
            52 MiB given to the printing process from OS
             0 MiB allocation reported by mallinfo(arena+hblkhd)
          1270 MiB available memory on the node where the printing process lives
------------------
     ethr =  1.10E-03,  avg # of iterations =  1.0

     negative rho (up, down):  1.856E-01 0.000E+00

     total cpu time spent up to now is        0.6 secs

     total energy              =      -1.65083904 Ry
     estimated scf accuracy    <       0.26900831 Ry

     iteration #  8     ecut=     5.00 Ry     beta= 0.70
     Davidson diagonalization with overlap

---- Real-time Memory Report at c_bands before calling an iterative solver
            53 MiB given to the printing process from OS
             0 MiB allocation reported by mallinfo(arena+hblkhd)
          1268 MiB available memory on the node where the printing process lives
------------------
     ethr =  1.10E-03,  avg # of iterations =  1.0

     negative rho (up, down):  1.857E-01 0.000E+00

     total cpu time spent up to now is        0.6 secs

     total energy              =      -1.69123644 Ry
     estimated scf accuracy    <       0.85147707 Ry

     iteration #  9     ecut=     5.00 Ry     beta= 0.70
     Davidson diagonalization with overlap

---- Real-time Memory Report at c_bands before calling an iterative solver
            55 MiB given to the printing process from OS
             0 MiB allocation reported by mallinfo(arena+hblkhd)
          1267 MiB available memory on the node where the printing process lives
------------------
     ethr =  1.10E-03,  avg # of iterations =  1.0

     negative rho (up, down):  1.857E-01 0.000E+00

     total cpu time spent up to now is        0.7 secs

     total energy              =      -1.69051014 Ry
     estimated scf accuracy    <       0.85813159 Ry

     iteration # 10     ecut=     5.00 Ry     beta= 0.70
     Davidson diagonalization with overlap

---- Real-time Memory Report at c_bands before calling an iterative solver
            56 MiB given to the printing process from OS
             0 MiB allocation reported by mallinfo(arena+hblkhd)
          1266 MiB available memory on the node where the printing process lives
------------------
     ethr =  1.10E-03,  avg # of iterations =  1.0

     negative rho (up, down):  1.857E-01 0.000E+00

     total cpu time spent up to now is        0.8 secs

     total energy              =      -1.69954234 Ry
     estimated scf accuracy    <       0.85675126 Ry

     iteration # 11     ecut=     5.00 Ry     beta= 0.70
     Davidson diagonalization with overlap

---- Real-time Memory Report at c_bands before calling an iterative solver
            56 MiB given to the printing process from OS
             0 MiB allocation reported by mallinfo(arena+hblkhd)
          1266 MiB available memory on the node where the printing process lives
------------------
     ethr =  1.10E-03,  avg # of iterations =  1.0

     negative rho (up, down):  1.861E-01 0.000E+00

     total cpu time spent up to now is        0.8 secs

     total energy              =      -1.68166027 Ry
     estimated scf accuracy    <       0.87566472 Ry

     iteration # 12     ecut=     5.00 Ry     beta= 0.70
     Davidson diagonalization with overlap

---- Real-time Memory Report at c_bands before calling an iterative solver
            56 MiB given to the printing process from OS
             0 MiB allocation reported by mallinfo(arena+hblkhd)
          1266 MiB available memory on the node where the printing process lives
------------------
     ethr =  1.10E-03,  avg # of iterations =  1.0

     negative rho (up, down):  1.866E-01 0.000E+00

     total cpu time spent up to now is        0.9 secs

     total energy              =      -1.66646989 Ry
     estimated scf accuracy    <       0.82872082 Ry

     iteration # 13     ecut=     5.00 Ry     beta= 0.70
     Davidson diagonalization with overlap

---- Real-time Memory Report at c_bands before calling an iterative solver
            56 MiB given to the printing process from OS
             0 MiB allocation reported by mallinfo(arena+hblkhd)
          1266 MiB available memory on the node where the printing process lives
------------------
     ethr =  1.10E-03,  avg # of iterations =  1.0

     negative rho (up, down):  1.869E-01 0.000E+00

     total cpu time spent up to now is        1.0 secs

     total energy              =      -1.67015004 Ry
     estimated scf accuracy    <       0.42877717 Ry

     iteration # 14     ecut=     5.00 Ry     beta= 0.70
     Davidson diagonalization with overlap

---- Real-time Memory Report at c_bands before calling an iterative solver
            56 MiB given to the printing process from OS
             0 MiB allocation reported by mallinfo(arena+hblkhd)
          1266 MiB available memory on the node where the printing process lives
------------------
     ethr =  1.10E-03,  avg # of iterations =  1.0

     negative rho (up, down):  1.863E-01 0.000E+00

     total cpu time spent up to now is        1.0 secs

     total energy              =      -1.66702994 Ry
     estimated scf accuracy    <       0.69202592 Ry

     iteration # 15     ecut=     5.00 Ry     beta= 0.70
     Davidson diagonalization with overlap

---- Real-time Memory Report at c_bands before calling an iterative solver
            56 MiB given to the printing process from OS
             0 MiB allocation reported by mallinfo(arena+hblkhd)
          1266 MiB available memory on the node where the printing process lives
------------------
     ethr =  1.10E-03,  avg # of iterations =  1.0

     negative rho (up, down):  1.865E-01 0.000E+00

     total cpu time spent up to now is        1.1 secs

     total energy              =      -1.67197275 Ry
     estimated scf accuracy    <       0.40673151 Ry

     iteration # 16     ecut=     5.00 Ry     beta= 0.70
     Davidson diagonalization with overlap

---- Real-time Memory Report at c_bands before calling an iterative solver
            56 MiB given to the printing process from OS
             0 MiB allocation reported by mallinfo(arena+hblkhd)
          1266 MiB available memory on the node where the printing process lives
------------------
     ethr =  1.10E-03,  avg # of iterations =  1.0

     negative rho (up, down):  1.844E-01 0.000E+00

     total cpu time spent up to now is        1.2 secs

     total energy              =      -1.69778023 Ry
     estimated scf accuracy    <       0.75138016 Ry

     iteration # 17     ecut=     5.00 Ry     beta= 0.70
     Davidson diagonalization with overlap

---- Real-time Memory Report at c_bands before calling an iterative solver
            56 MiB given to the printing process from OS
             0 MiB allocation reported by mallinfo(arena+hblkhd)
          1266 MiB available memory on the node where the printing process lives
------------------
     ethr =  1.10E-03,  avg # of iterations =  1.0

     negative rho (up, down):  1.829E-01 0.000E+00

     total cpu time spent up to now is        1.2 secs

     total energy              =      -1.66956270 Ry
     estimated scf accuracy    <       0.87387209 Ry

     iteration # 18     ecut=     5.00 Ry     beta= 0.70
     Davidson diagonalization with overlap

---- Real-time Memory Report at c_bands before calling an iterative solver
            56 MiB given to the printing process from OS
             0 MiB allocation reported by mallinfo(arena+hblkhd)
          1266 MiB available memory on the node where the printing process lives
------------------
     ethr =  1.10E-03,  avg # of iterations =  1.0

     negative rho (up, down):  1.821E-01 0.000E+00

     total cpu time spent up to now is        1.3 secs

     total energy              =      -1.69235530 Ry
     estimated scf accuracy    <       0.61005311 Ry

     iteration # 19     ecut=     5.00 Ry     beta= 0.70
     Davidson diagonalization with overlap

---- Real-time Memory Report at c_bands before calling an iterative solver
            56 MiB given to the printing process from OS
             0 MiB allocation reported by mallinfo(arena+hblkhd)
          1266 MiB available memory on the node where the printing process lives
------------------
     ethr =  1.10E-03,  avg # of iterations =  1.0

     negative rho (up, down):  1.817E-01 0.000E+00

     total cpu time spent up to now is        1.4 secs

     total energy              =      -1.67210880 Ry
     estimated scf accuracy    <       0.86503337 Ry

     iteration # 20     ecut=     5.00 Ry     beta= 0.70
     Davidson diagonalization with overlap

---- Real-time Memory Report at c_bands before calling an iterative solver
            56 MiB given to the printing process from OS
             0 MiB allocation reported by mallinfo(arena+hblkhd)
          1266 MiB available memory on the node where the printing process lives
------------------
     ethr =  1.10E-03,  avg # of iterations =  1.0

     negative rho (up, down):  1.807E-01 0.000E+00

     total cpu time spent up to now is        1.4 secs

     total energy              =      -1.62183467 Ry
     estimated scf accuracy    <       0.69615411 Ry

     iteration # 21     ecut=     5.00 Ry     beta= 0.70
     Davidson diagonalization with overlap

---- Real-time Memory Report at c_bands before calling an iterative solver
            56 MiB given to the printing process from OS
             0 MiB allocation reported by mallinfo(arena+hblkhd)
          1266 MiB available memory on the node where the printing process lives
------------------
     ethr =  1.10E-03,  avg # of iterations =  1.0

     negative rho (up, down):  1.873E-01 0.000E+00

     total cpu time spent up to now is        1.5 secs

     total energy              =      -1.64710555 Ry
     estimated scf accuracy    <       0.90132094 Ry

     iteration # 22     ecut=     5.00 Ry     beta= 0.70
     Davidson diagonalization with overlap

---- Real-time Memory Report at c_bands before calling an iterative solver
            56 MiB given to the printing process from OS
             0 MiB allocation reported by mallinfo(arena+hblkhd)
          1266 MiB available memory on the node where the printing process lives
------------------
     ethr =  1.10E-03,  avg # of iterations =  1.0

     negative rho (up, down):  1.864E-01 0.000E+00

     total cpu time spent up to now is        1.6 secs

     total energy              =      -1.64893219 Ry
     estimated scf accuracy    <       0.80159343 Ry

     iteration # 23     ecut=     5.00 Ry     beta= 0.70
     Davidson diagonalization with overlap

---- Real-time Memory Report at c_bands before calling an iterative solver
            56 MiB given to the printing process from OS
             0 MiB allocation reported by mallinfo(arena+hblkhd)
          1266 MiB available memory on the node where the printing process lives
------------------
     ethr =  1.10E-03,  avg # of iterations =  1.0

     negative rho (up, down):  1.876E-01 0.000E+00

     total cpu time spent up to now is        1.6 secs

     total energy              =      -1.67038532 Ry
     estimated scf accuracy    <       0.79982370 Ry

     iteration # 24     ecut=     5.00 Ry     beta= 0.70
     Davidson diagonalization with overlap

---- Real-time Memory Report at c_bands before calling an iterative solver
            56 MiB given to the printing process from OS
             0 MiB allocation reported by mallinfo(arena+hblkhd)
          1266 MiB available memory on the node where the printing process lives
------------------
     ethr =  1.10E-03,  avg # of iterations =  1.0

     negative rho (up, down):  1.881E-01 0.000E+00

     total cpu time spent up to now is        1.7 secs

     total energy              =      -1.66269979 Ry
     estimated scf accuracy    <       0.69592258 Ry

     iteration # 25     ecut=     5.00 Ry     beta= 0.70
     Davidson diagonalization with overlap

---- Real-time Memory Report at c_bands before calling an iterative solver
            56 MiB given to the printing process from OS
             0 MiB allocation reported by mallinfo(arena+hblkhd)
          1266 MiB available memory on the node where the printing process lives
------------------
     ethr =  1.10E-03,  avg # of iterations =  1.0

     negative rho (up, down):  1.878E-01 0.000E+00

     total cpu time spent up to now is        1.8 secs

     total energy              =      -1.66493475 Ry
     estimated scf accuracy    <       0.01659994 Ry

     iteration # 26     ecut=     5.00 Ry     beta= 0.70
     Davidson diagonalization with overlap

---- Real-time Memory Report at c_bands before calling an iterative solver
            56 MiB given to the printing process from OS
             0 MiB allocation reported by mallinfo(arena+hblkhd)
          1266 MiB available memory on the node where the printing process lives
------------------
     ethr =  8.30E-04,  avg # of iterations =  1.0

     negative rho (up, down):  1.876E-01 0.000E+00

     total cpu time spent up to now is        1.8 secs

     total energy              =      -1.66482325 Ry
     estimated scf accuracy    <       0.28238729 Ry

     iteration # 27     ecut=     5.00 Ry     beta= 0.70
     Davidson diagonalization with overlap

---- Real-time Memory Report at c_bands before calling an iterative solver
            56 MiB given to the printing process from OS
             0 MiB allocation reported by mallinfo(arena+hblkhd)
          1266 MiB available memory on the node where the printing process lives
------------------
     ethr =  8.30E-04,  avg # of iterations =  1.0

     negative rho (up, down):  1.877E-01 0.000E+00

     total cpu time spent up to now is        1.9 secs

     total energy              =      -1.66534469 Ry
     estimated scf accuracy    <       0.00127353 Ry

     iteration # 28     ecut=     5.00 Ry     beta= 0.70
     Davidson diagonalization with overlap

---- Real-time Memory Report at c_bands before calling an iterative solver
            56 MiB given to the printing process from OS
             0 MiB allocation reported by mallinfo(arena+hblkhd)
          1266 MiB available memory on the node where the printing process lives
------------------
     ethr =  6.37E-05,  avg # of iterations =  1.0

     negative rho (up, down):  1.880E-01 0.000E+00

     total cpu time spent up to now is        2.0 secs

     total energy              =      -1.66486072 Ry
     estimated scf accuracy    <       0.03084902 Ry

     iteration # 29     ecut=     5.00 Ry     beta= 0.70
     Davidson diagonalization with overlap

---- Real-time Memory Report at c_bands before calling an iterative solver
            56 MiB given to the printing process from OS
             0 MiB allocation reported by mallinfo(arena+hblkhd)
          1266 MiB available memory on the node where the printing process lives
------------------
     ethr =  6.37E-05,  avg # of iterations =  1.0

     negative rho (up, down):  1.873E-01 0.000E+00

     total cpu time spent up to now is        2.1 secs

     total energy              =      -1.66416828 Ry
     estimated scf accuracy    <       0.20347222 Ry

     iteration # 30     ecut=     5.00 Ry     beta= 0.70
     Davidson diagonalization with overlap

---- Real-time Memory Report at c_bands before calling an iterative solver
            56 MiB given to the printing process from OS
             0 MiB allocation reported by mallinfo(arena+hblkhd)
          1266 MiB available memory on the node where the printing process lives
------------------
     ethr =  6.37E-05,  avg # of iterations =  1.0

     negative rho (up, down):  1.871E-01 0.000E+00

     total cpu time spent up to now is        2.1 secs

     total energy              =      -1.66547042 Ry
     estimated scf accuracy    <       0.16700663 Ry

     iteration # 31     ecut=     5.00 Ry     beta= 0.70
     Davidson diagonalization with overlap

---- Real-time Memory Report at c_bands before calling an iterative solver
            56 MiB given to the printing process from OS
             0 MiB allocation reported by mallinfo(arena+hblkhd)
          1266 MiB available memory on the node where the printing process lives
------------------
     ethr =  6.37E-05,  avg # of iterations =  1.0

     negative rho (up, down):  1.864E-01 0.000E+00

     total cpu time spent up to now is        2.2 secs

     total energy              =      -1.66587508 Ry
     estimated scf accuracy    <       0.02022650 Ry

     iteration # 32     ecut=     5.00 Ry     beta= 0.70
     Davidson diagonalization with overlap

---- Real-time Memory Report at c_bands before calling an iterative solver
            56 MiB given to the printing process from OS
             0 MiB allocation reported by mallinfo(arena+hblkhd)
          1266 MiB available memory on the node where the printing process lives
------------------
     ethr =  6.37E-05,  avg # of iterations =  1.0

     negative rho (up, down):  1.859E-01 0.000E+00

     total cpu time spent up to now is        2.3 secs

     total energy              =      -1.66623374 Ry
     estimated scf accuracy    <       0.02967611 Ry

     iteration # 33     ecut=     5.00 Ry     beta= 0.70
     Davidson diagonalization with overlap

---- Real-time Memory Report at c_bands before calling an iterative solver
            56 MiB given to the printing process from OS
             0 MiB allocation reported by mallinfo(arena+hblkhd)
          1266 MiB available memory on the node where the printing process lives
------------------
     ethr =  6.37E-05,  avg # of iterations =  1.0

     negative rho (up, down):  1.864E-01 0.000E+00

     total cpu time spent up to now is        2.3 secs

     total energy              =      -1.66574642 Ry
     estimated scf accuracy    <       0.15809538 Ry

     iteration # 34     ecut=     5.00 Ry     beta= 0.70
     Davidson diagonalization with overlap

---- Real-time Memory Report at c_bands before calling an iterative solver
            56 MiB given to the printing process from OS
             0 MiB allocation reported by mallinfo(arena+hblkhd)
          1266 MiB available memory on the node where the printing process lives
------------------
     ethr =  6.37E-05,  avg # of iterations =  1.0

     negative rho (up, down):  1.863E-01 0.000E+00

     total cpu time spent up to now is        2.4 secs

     total energy              =      -1.66591465 Ry
     estimated scf accuracy    <       0.02846031 Ry

     iteration # 35     ecut=     5.00 Ry     beta= 0.70
     Davidson diagonalization with overlap

---- Real-time Memory Report at c_bands before calling an iterative solver
            56 MiB given to the printing process from OS
             0 MiB allocation reported by mallinfo(arena+hblkhd)
          1266 MiB available memory on the node where the printing process lives
------------------
     ethr =  6.37E-05,  avg # of iterations =  1.0

     negative rho (up, down):  1.861E-01 0.000E+00

     total cpu time spent up to now is        2.5 secs

     total energy              =      -1.66590231 Ry
     estimated scf accuracy    <       0.03238390 Ry

     iteration # 36     ecut=     5.00 Ry     beta= 0.70
     Davidson diagonalization with overlap

---- Real-time Memory Report at c_bands before calling an iterative solver
            56 MiB given to the printing process from OS
             0 MiB allocation reported by mallinfo(arena+hblkhd)
          1266 MiB available memory on the node where the printing process lives
------------------
     ethr =  6.37E-05,  avg # of iterations =  1.0

     negative rho (up, down):  1.855E-01 0.000E+00

     total cpu time spent up to now is        2.5 secs

     total energy              =      -1.66605494 Ry
     estimated scf accuracy    <       0.01661800 Ry

     iteration # 37     ecut=     5.00 Ry     beta= 0.70
     Davidson diagonalization with overlap

---- Real-time Memory Report at c_bands before calling an iterative solver
            56 MiB given to the printing process from OS
             0 MiB allocation reported by mallinfo(arena+hblkhd)
          1266 MiB available memory on the node where the printing process lives
------------------
     ethr =  6.37E-05,  avg # of iterations =  1.0

     negative rho (up, down):  1.858E-01 0.000E+00

     total cpu time spent up to now is        2.6 secs

     total energy              =      -1.66593061 Ry
     estimated scf accuracy    <       0.00504588 Ry

     iteration # 38     ecut=     5.00 Ry     beta= 0.70
     Davidson diagonalization with overlap

---- Real-time Memory Report at c_bands before calling an iterative solver
            56 MiB given to the printing process from OS
             0 MiB allocation reported by mallinfo(arena+hblkhd)
          1266 MiB available memory on the node where the printing process lives
------------------
     ethr =  6.37E-05,  avg # of iterations =  1.0

     negative rho (up, down):  1.864E-01 0.000E+00

     total cpu time spent up to now is        2.7 secs

     total energy              =      -1.66576371 Ry
     estimated scf accuracy    <       0.00049082 Ry

     iteration # 39     ecut=     5.00 Ry     beta= 0.70
     Davidson diagonalization with overlap

---- Real-time Memory Report at c_bands before calling an iterative solver
            56 MiB given to the printing process from OS
             0 MiB allocation reported by mallinfo(arena+hblkhd)
          1266 MiB available memory on the node where the printing process lives
------------------
     ethr =  2.45E-05,  avg # of iterations =  1.0

     negative rho (up, down):  1.864E-01 0.000E+00

     total cpu time spent up to now is        2.7 secs

     total energy              =      -1.66577346 Ry
     estimated scf accuracy    <       0.00089483 Ry

     iteration # 40     ecut=     5.00 Ry     beta= 0.70
     Davidson diagonalization with overlap

---- Real-time Memory Report at c_bands before calling an iterative solver
            56 MiB given to the printing process from OS
             0 MiB allocation reported by mallinfo(arena+hblkhd)
          1266 MiB available memory on the node where the printing process lives
------------------
     ethr =  2.45E-05,  avg # of iterations =  1.0

     negative rho (up, down):  1.864E-01 0.000E+00

     total cpu time spent up to now is        2.8 secs

     total energy              =      -1.66580720 Ry
     estimated scf accuracy    <       0.00222856 Ry

     iteration # 41     ecut=     5.00 Ry     beta= 0.70
     Davidson diagonalization with overlap

---- Real-time Memory Report at c_bands before calling an iterative solver
            56 MiB given to the printing process from OS
             0 MiB allocation reported by mallinfo(arena+hblkhd)
          1266 MiB available memory on the node where the printing process lives
------------------
     ethr =  2.45E-05,  avg # of iterations =  1.0

     negative rho (up, down):  1.863E-01 0.000E+00

     total cpu time spent up to now is        2.9 secs

     total energy              =      -1.66584147 Ry
     estimated scf accuracy    <       0.00141365 Ry

     iteration # 42     ecut=     5.00 Ry     beta= 0.70
     Davidson diagonalization with overlap

---- Real-time Memory Report at c_bands before calling an iterative solver
            56 MiB given to the printing process from OS
             0 MiB allocation reported by mallinfo(arena+hblkhd)
          1266 MiB available memory on the node where the printing process lives
------------------
     ethr =  2.45E-05,  avg # of iterations =  1.0

     negative rho (up, down):  1.863E-01 0.000E+00

     total cpu time spent up to now is        2.9 secs

     total energy              =      -1.66583755 Ry
     estimated scf accuracy    <       0.00393068 Ry

     iteration # 43     ecut=     5.00 Ry     beta= 0.70
     Davidson diagonalization with overlap

---- Real-time Memory Report at c_bands before calling an iterative solver
            56 MiB given to the printing process from OS
             0 MiB allocation reported by mallinfo(arena+hblkhd)
          1266 MiB available memory on the node where the printing process lives
------------------
     ethr =  2.45E-05,  avg # of iterations =  1.0

     negative rho (up, down):  1.863E-01 0.000E+00

     total cpu time spent up to now is        3.0 secs

     total energy              =      -1.66584060 Ry
     estimated scf accuracy    <       0.00128715 Ry

     iteration # 44     ecut=     5.00 Ry     beta= 0.70
     Davidson diagonalization with overlap

---- Real-time Memory Report at c_bands before calling an iterative solver
            56 MiB given to the printing process from OS
             0 MiB allocation reported by mallinfo(arena+hblkhd)
          1266 MiB available memory on the node where the printing process lives
------------------
     ethr =  2.45E-05,  avg # of iterations =  1.0

     negative rho (up, down):  1.863E-01 0.000E+00

     total cpu time spent up to now is        3.1 secs

     total energy              =      -1.66583967 Ry
     estimated scf accuracy    <       0.00087416 Ry

     iteration # 45     ecut=     5.00 Ry     beta= 0.70
     Davidson diagonalization with overlap

---- Real-time Memory Report at c_bands before calling an iterative solver
            56 MiB given to the printing process from OS
             0 MiB allocation reported by mallinfo(arena+hblkhd)
          1266 MiB available memory on the node where the printing process lives
------------------
     ethr =  2.45E-05,  avg # of iterations =  1.0

     negative rho (up, down):  1.863E-01 0.000E+00

     total cpu time spent up to now is        3.1 secs

     total energy              =      -1.66582267 Ry
     estimated scf accuracy    <       0.00029026 Ry

     iteration # 46     ecut=     5.00 Ry     beta= 0.70
     Davidson diagonalization with overlap

---- Real-time Memory Report at c_bands before calling an iterative solver
            56 MiB given to the printing process from OS
             0 MiB allocation reported by mallinfo(arena+hblkhd)
          1266 MiB available memory on the node where the printing process lives
------------------
     ethr =  1.45E-05,  avg # of iterations =  1.0

     negative rho (up, down):  1.864E-01 0.000E+00

     total cpu time spent up to now is        3.2 secs

     total energy              =      -1.66582602 Ry
     estimated scf accuracy    <       0.00081426 Ry

     iteration # 47     ecut=     5.00 Ry     beta= 0.70
     Davidson diagonalization with overlap

---- Real-time Memory Report at c_bands before calling an iterative solver
            56 MiB given to the printing process from OS
             0 MiB allocation reported by mallinfo(arena+hblkhd)
          1266 MiB available memory on the node where the printing process lives
------------------
     ethr =  1.45E-05,  avg # of iterations =  1.0

     negative rho (up, down):  1.864E-01 0.000E+00

     total cpu time spent up to now is        3.3 secs

     total energy              =      -1.66583658 Ry
     estimated scf accuracy    <       0.00035640 Ry

     iteration # 48     ecut=     5.00 Ry     beta= 0.70
     Davidson diagonalization with overlap

---- Real-time Memory Report at c_bands before calling an iterative solver
            56 MiB given to the printing process from OS
             0 MiB allocation reported by mallinfo(arena+hblkhd)
          1266 MiB available memory on the node where the printing process lives
------------------
     ethr =  1.45E-05,  avg # of iterations =  1.0

     negative rho (up, down):  1.864E-01 0.000E+00

     total cpu time spent up to now is        3.4 secs

     total energy              =      -1.66580402 Ry
     estimated scf accuracy    <       0.00046725 Ry

     iteration # 49     ecut=     5.00 Ry     beta= 0.70
     Davidson diagonalization with overlap

---- Real-time Memory Report at c_bands before calling an iterative solver
            56 MiB given to the printing process from OS
             0 MiB allocation reported by mallinfo(arena+hblkhd)
          1266 MiB available memory on the node where the printing process lives
------------------
     ethr =  1.45E-05,  avg # of iterations =  1.0

     negative rho (up, down):  1.864E-01 0.000E+00

     total cpu time spent up to now is        3.4 secs

     total energy              =      -1.66580312 Ry
     estimated scf accuracy    <       0.00089171 Ry

     iteration # 50     ecut=     5.00 Ry     beta= 0.70
     Davidson diagonalization with overlap

---- Real-time Memory Report at c_bands before calling an iterative solver
            56 MiB given to the printing process from OS
             0 MiB allocation reported by mallinfo(arena+hblkhd)
          1266 MiB available memory on the node where the printing process lives
------------------
     ethr =  1.45E-05,  avg # of iterations =  1.0

     negative rho (up, down):  1.864E-01 0.000E+00

     total cpu time spent up to now is        3.5 secs

     total energy              =      -1.66581966 Ry
     estimated scf accuracy    <       0.00002320 Ry

     iteration # 51     ecut=     5.00 Ry     beta= 0.70
     Davidson diagonalization with overlap

---- Real-time Memory Report at c_bands before calling an iterative solver
            56 MiB given to the printing process from OS
             0 MiB allocation reported by mallinfo(arena+hblkhd)
          1266 MiB available memory on the node where the printing process lives
------------------
     ethr =  1.16E-06,  avg # of iterations =  1.0

     negative rho (up, down):  1.863E-01 0.000E+00

     total cpu time spent up to now is        3.6 secs

     total energy              =      -1.66582061 Ry
     estimated scf accuracy    <       0.00033912 Ry

     iteration # 52     ecut=     5.00 Ry     beta= 0.70
     Davidson diagonalization with overlap

---- Real-time Memory Report at c_bands before calling an iterative solver
            56 MiB given to the printing process from OS
             0 MiB allocation reported by mallinfo(arena+hblkhd)
          1266 MiB available memory on the node where the printing process lives
------------------
     ethr =  1.16E-06,  avg # of iterations =  1.0

     negative rho (up, down):  1.864E-01 0.000E+00

     total cpu time spent up to now is        3.6 secs

     total energy              =      -1.66582551 Ry
     estimated scf accuracy    <       0.00034085 Ry

     iteration # 53     ecut=     5.00 Ry     beta= 0.70
     Davidson diagonalization with overlap

---- Real-time Memory Report at c_bands before calling an iterative solver
            56 MiB given to the printing process from OS
             0 MiB allocation reported by mallinfo(arena+hblkhd)
          1266 MiB available memory on the node where the printing process lives
------------------
     ethr =  1.16E-06,  avg # of iterations =  1.0

     negative rho (up, down):  1.864E-01 0.000E+00

     total cpu time spent up to now is        3.7 secs

     total energy              =      -1.66581274 Ry
     estimated scf accuracy    <       0.00020911 Ry

     iteration # 54     ecut=     5.00 Ry     beta= 0.70
     Davidson diagonalization with overlap

---- Real-time Memory Report at c_bands before calling an iterative solver
            56 MiB given to the printing process from OS
             0 MiB allocation reported by mallinfo(arena+hblkhd)
          1266 MiB available memory on the node where the printing process lives
------------------
     ethr =  1.16E-06,  avg # of iterations =  1.0

     negative rho (up, down):  1.864E-01 0.000E+00

     total cpu time spent up to now is        3.8 secs

     total energy              =      -1.66581782 Ry
     estimated scf accuracy    <       0.00036610 Ry

     iteration # 55     ecut=     5.00 Ry     beta= 0.70
     Davidson diagonalization with overlap

---- Real-time Memory Report at c_bands before calling an iterative solver
            56 MiB given to the printing process from OS
             0 MiB allocation reported by mallinfo(arena+hblkhd)
          1266 MiB available memory on the node where the printing process lives
------------------
     ethr =  1.16E-06,  avg # of iterations =  1.0

     negative rho (up, down):  1.864E-01 0.000E+00

     total cpu time spent up to now is        3.8 secs

     total energy              =      -1.66581387 Ry
     estimated scf accuracy    <       0.00025731 Ry

     iteration # 56     ecut=     5.00 Ry     beta= 0.70
     Davidson diagonalization with overlap

---- Real-time Memory Report at c_bands before calling an iterative solver
            56 MiB given to the printing process from OS
             0 MiB allocation reported by mallinfo(arena+hblkhd)
          1266 MiB available memory on the node where the printing process lives
------------------
     ethr =  1.16E-06,  avg # of iterations =  1.0

     negative rho (up, down):  1.864E-01 0.000E+00

     total cpu time spent up to now is        3.9 secs

     total energy              =      -1.66580379 Ry
     estimated scf accuracy    <       0.00036867 Ry

     iteration # 57     ecut=     5.00 Ry     beta= 0.70
     Davidson diagonalization with overlap

---- Real-time Memory Report at c_bands before calling an iterative solver
            56 MiB given to the printing process from OS
             0 MiB allocation reported by mallinfo(arena+hblkhd)
          1266 MiB available memory on the node where the printing process lives
------------------
     ethr =  1.16E-06,  avg # of iterations =  1.0

     negative rho (up, down):  1.864E-01 0.000E+00

     total cpu time spent up to now is        4.0 secs

     total energy              =      -1.66581076 Ry
     estimated scf accuracy    <       0.00044157 Ry

     iteration # 58     ecut=     5.00 Ry     beta= 0.70
     Davidson diagonalization with overlap

---- Real-time Memory Report at c_bands before calling an iterative solver
            56 MiB given to the printing process from OS
             0 MiB allocation reported by mallinfo(arena+hblkhd)
          1266 MiB available memory on the node where the printing process lives
------------------
     ethr =  1.16E-06,  avg # of iterations =  1.0

     negative rho (up, down):  1.864E-01 0.000E+00

     total cpu time spent up to now is        4.0 secs

     total energy              =      -1.66580366 Ry
     estimated scf accuracy    <       0.00037124 Ry

     iteration # 59     ecut=     5.00 Ry     beta= 0.70
     Davidson diagonalization with overlap

---- Real-time Memory Report at c_bands before calling an iterative solver
            56 MiB given to the printing process from OS
             0 MiB allocation reported by mallinfo(arena+hblkhd)
          1266 MiB available memory on the node where the printing process lives
------------------
     ethr =  1.16E-06,  avg # of iterations =  1.0

     negative rho (up, down):  1.864E-01 0.000E+00

     total cpu time spent up to now is        4.1 secs

     total energy              =      -1.66580449 Ry
     estimated scf accuracy    <       0.00041383 Ry

     iteration # 60     ecut=     5.00 Ry     beta= 0.70
     Davidson diagonalization with overlap

---- Real-time Memory Report at c_bands before calling an iterative solver
            56 MiB given to the printing process from OS
             0 MiB allocation reported by mallinfo(arena+hblkhd)
          1266 MiB available memory on the node where the printing process lives
------------------
     ethr =  1.16E-06,  avg # of iterations =  1.0

     negative rho (up, down):  1.864E-01 0.000E+00

     total cpu time spent up to now is        4.2 secs

     total energy              =      -1.66579472 Ry
     estimated scf accuracy    <       0.00043931 Ry

     iteration # 61     ecut=     5.00 Ry     beta= 0.70
     Davidson diagonalization with overlap

---- Real-time Memory Report at c_bands before calling an iterative solver
            56 MiB given to the printing process from OS
             0 MiB allocation reported by mallinfo(arena+hblkhd)
          1266 MiB available memory on the node where the printing process lives
------------------
     ethr =  1.16E-06,  avg # of iterations =  1.0

     negative rho (up, down):  1.864E-01 0.000E+00

     total cpu time spent up to now is        4.2 secs

     total energy              =      -1.66581100 Ry
     estimated scf accuracy    <       0.00002572 Ry

     iteration # 62     ecut=     5.00 Ry     beta= 0.70
     Davidson diagonalization with overlap

---- Real-time Memory Report at c_bands before calling an iterative solver
            56 MiB given to the printing process from OS
             0 MiB allocation reported by mallinfo(arena+hblkhd)
          1266 MiB available memory on the node where the printing process lives
------------------
     ethr =  1.16E-06,  avg # of iterations =  1.0

     negative rho (up, down):  1.864E-01 0.000E+00

     total cpu time spent up to now is        4.3 secs

     total energy              =      -1.66581838 Ry
     estimated scf accuracy    <       0.00045288 Ry

     iteration # 63     ecut=     5.00 Ry     beta= 0.70
     Davidson diagonalization with overlap

---- Real-time Memory Report at c_bands before calling an iterative solver
            56 MiB given to the printing process from OS
             0 MiB allocation reported by mallinfo(arena+hblkhd)
          1266 MiB available memory on the node where the printing process lives
------------------
     ethr =  1.16E-06,  avg # of iterations =  1.0

     negative rho (up, down):  1.864E-01 0.000E+00

     total cpu time spent up to now is        4.4 secs

     total energy              =      -1.66582347 Ry
     estimated scf accuracy    <       0.00019852 Ry

     iteration # 64     ecut=     5.00 Ry     beta= 0.70
     Davidson diagonalization with overlap

---- Real-time Memory Report at c_bands before calling an iterative solver
            56 MiB given to the printing process from OS
             0 MiB allocation reported by mallinfo(arena+hblkhd)
          1266 MiB available memory on the node where the printing process lives
------------------
     ethr =  1.16E-06,  avg # of iterations =  1.0

     negative rho (up, down):  1.864E-01 0.000E+00

     total cpu time spent up to now is        4.4 secs

     total energy              =      -1.66582400 Ry
     estimated scf accuracy    <       0.00001618 Ry

     iteration # 65     ecut=     5.00 Ry     beta= 0.70
     Davidson diagonalization with overlap

---- Real-time Memory Report at c_bands before calling an iterative solver
            56 MiB given to the printing process from OS
             0 MiB allocation reported by mallinfo(arena+hblkhd)
          1266 MiB available memory on the node where the printing process lives
------------------
     ethr =  8.09E-07,  avg # of iterations =  1.0

     negative rho (up, down):  1.864E-01 0.000E+00

     total cpu time spent up to now is        4.5 secs

     total energy              =      -1.66582423 Ry
     estimated scf accuracy    <       0.00001667 Ry

     iteration # 66     ecut=     5.00 Ry     beta= 0.70
     Davidson diagonalization with overlap

---- Real-time Memory Report at c_bands before calling an iterative solver
            56 MiB given to the printing process from OS
             0 MiB allocation reported by mallinfo(arena+hblkhd)
          1266 MiB available memory on the node where the printing process lives
------------------
     ethr =  8.09E-07,  avg # of iterations =  1.0

     negative rho (up, down):  1.864E-01 0.000E+00

     total cpu time spent up to now is        4.6 secs

     total energy              =      -1.66581724 Ry
     estimated scf accuracy    <       0.00004006 Ry

     iteration # 67     ecut=     5.00 Ry     beta= 0.70
     Davidson diagonalization with overlap

---- Real-time Memory Report at c_bands before calling an iterative solver
            56 MiB given to the printing process from OS
             0 MiB allocation reported by mallinfo(arena+hblkhd)
          1266 MiB available memory on the node where the printing process lives
------------------
     ethr =  8.09E-07,  avg # of iterations =  1.0

     negative rho (up, down):  1.864E-01 0.000E+00

     total cpu time spent up to now is        4.6 secs

     total energy              =      -1.66580983 Ry
     estimated scf accuracy    <       0.00009825 Ry

     iteration # 68     ecut=     5.00 Ry     beta= 0.70
     Davidson diagonalization with overlap

---- Real-time Memory Report at c_bands before calling an iterative solver
            56 MiB given to the printing process from OS
             0 MiB allocation reported by mallinfo(arena+hblkhd)
          1266 MiB available memory on the node where the printing process lives
------------------
     ethr =  8.09E-07,  avg # of iterations =  1.0

     negative rho (up, down):  1.864E-01 0.000E+00

     total cpu time spent up to now is        4.7 secs

     total energy              =      -1.66581098 Ry
     estimated scf accuracy    <       0.00028368 Ry

     iteration # 69     ecut=     5.00 Ry     beta= 0.70
     Davidson diagonalization with overlap

---- Real-time Memory Report at c_bands before calling an iterative solver
            56 MiB given to the printing process from OS
             0 MiB allocation reported by mallinfo(arena+hblkhd)
          1266 MiB available memory on the node where the printing process lives
------------------
     ethr =  8.09E-07,  avg # of iterations =  1.0

     negative rho (up, down):  1.864E-01 0.000E+00

     total cpu time spent up to now is        4.8 secs

     total energy              =      -1.66582601 Ry
     estimated scf accuracy    <       0.00037764 Ry

     iteration # 70     ecut=     5.00 Ry     beta= 0.70
     Davidson diagonalization with overlap

---- Real-time Memory Report at c_bands before calling an iterative solver
            56 MiB given to the printing process from OS
             0 MiB allocation reported by mallinfo(arena+hblkhd)
          1266 MiB available memory on the node where the printing process lives
------------------
     ethr =  8.09E-07,  avg # of iterations =  1.0

     negative rho (up, down):  1.864E-01 0.000E+00

     total cpu time spent up to now is        4.8 secs

     total energy              =      -1.66581829 Ry
     estimated scf accuracy    <       0.00017349 Ry

     iteration # 71     ecut=     5.00 Ry     beta= 0.70
     Davidson diagonalization with overlap

---- Real-time Memory Report at c_bands before calling an iterative solver
            56 MiB given to the printing process from OS
             0 MiB allocation reported by mallinfo(arena+hblkhd)
          1266 MiB available memory on the node where the printing process lives
------------------
     ethr =  8.09E-07,  avg # of iterations =  1.0

     negative rho (up, down):  1.864E-01 0.000E+00

     total cpu time spent up to now is        4.9 secs

     total energy              =      -1.66582537 Ry
     estimated scf accuracy    <       0.00006327 Ry

     iteration # 72     ecut=     5.00 Ry     beta= 0.70
     Davidson diagonalization with overlap

---- Real-time Memory Report at c_bands before calling an iterative solver
            56 MiB given to the printing process from OS
             0 MiB allocation reported by mallinfo(arena+hblkhd)
          1266 MiB available memory on the node where the printing process lives
------------------
     ethr =  8.09E-07,  avg # of iterations =  1.0

     negative rho (up, down):  1.864E-01 0.000E+00

     total cpu time spent up to now is        5.0 secs

     total energy              =      -1.66581776 Ry
     estimated scf accuracy    <       0.00007746 Ry

     iteration # 73     ecut=     5.00 Ry     beta= 0.70
     Davidson diagonalization with overlap

---- Real-time Memory Report at c_bands before calling an iterative solver
            56 MiB given to the printing process from OS
             0 MiB allocation reported by mallinfo(arena+hblkhd)
          1266 MiB available memory on the node where the printing process lives
------------------
     ethr =  8.09E-07,  avg # of iterations =  1.0

     negative rho (up, down):  1.864E-01 0.000E+00

     total cpu time spent up to now is        5.1 secs

     total energy              =      -1.66581840 Ry
     estimated scf accuracy    <       0.00030303 Ry

     iteration # 74     ecut=     5.00 Ry     beta= 0.70
     Davidson diagonalization with overlap

---- Real-time Memory Report at c_bands before calling an iterative solver
            56 MiB given to the printing process from OS
             0 MiB allocation reported by mallinfo(arena+hblkhd)
          1266 MiB available memory on the node where the printing process lives
------------------
     ethr =  8.09E-07,  avg # of iterations =  1.0

     negative rho (up, down):  1.864E-01 0.000E+00

     total cpu time spent up to now is        5.1 secs

     total energy              =      -1.66582361 Ry
     estimated scf accuracy    <       0.00014795 Ry

     iteration # 75     ecut=     5.00 Ry     beta= 0.70
     Davidson diagonalization with overlap

---- Real-time Memory Report at c_bands before calling an iterative solver
            56 MiB given to the printing process from OS
             0 MiB allocation reported by mallinfo(arena+hblkhd)
          1266 MiB available memory on the node where the printing process lives
------------------
     ethr =  8.09E-07,  avg # of iterations =  1.0

     negative rho (up, down):  1.864E-01 0.000E+00

     total cpu time spent up to now is        5.2 secs

     total energy              =      -1.66582487 Ry
     estimated scf accuracy    <       0.00000337 Ry

     iteration # 76     ecut=     5.00 Ry     beta= 0.70
     Davidson diagonalization with overlap

---- Real-time Memory Report at c_bands before calling an iterative solver
            56 MiB given to the printing process from OS
             0 MiB allocation reported by mallinfo(arena+hblkhd)
          1266 MiB available memory on the node where the printing process lives
------------------
     ethr =  1.69E-07,  avg # of iterations =  1.0

     negative rho (up, down):  1.864E-01 0.000E+00

     total cpu time spent up to now is        5.3 secs

     total energy              =      -1.66582517 Ry
     estimated scf accuracy    <       0.00007162 Ry

     iteration # 77     ecut=     5.00 Ry     beta= 0.70
     Davidson diagonalization with overlap

---- Real-time Memory Report at c_bands before calling an iterative solver
            56 MiB given to the printing process from OS
             0 MiB allocation reported by mallinfo(arena+hblkhd)
          1266 MiB available memory on the node where the printing process lives
------------------
     ethr =  1.69E-07,  avg # of iterations =  1.0

     negative rho (up, down):  1.864E-01 0.000E+00

     total cpu time spent up to now is        5.3 secs

     total energy              =      -1.66582372 Ry
     estimated scf accuracy    <       0.00008388 Ry

     iteration # 78     ecut=     5.00 Ry     beta= 0.70
     Davidson diagonalization with overlap

---- Real-time Memory Report at c_bands before calling an iterative solver
            56 MiB given to the printing process from OS
             0 MiB allocation reported by mallinfo(arena+hblkhd)
          1266 MiB available memory on the node where the printing process lives
------------------
     ethr =  1.69E-07,  avg # of iterations =  1.0

     negative rho (up, down):  1.864E-01 0.000E+00

     total cpu time spent up to now is        5.4 secs

     total energy              =      -1.66580905 Ry
     estimated scf accuracy    <       0.00003093 Ry

     iteration # 79     ecut=     5.00 Ry     beta= 0.70
     Davidson diagonalization with overlap

---- Real-time Memory Report at c_bands before calling an iterative solver
            56 MiB given to the printing process from OS
             0 MiB allocation reported by mallinfo(arena+hblkhd)
          1266 MiB available memory on the node where the printing process lives
------------------
     ethr =  1.69E-07,  avg # of iterations =  2.0

     negative rho (up, down):  1.864E-01 0.000E+00

     total cpu time spent up to now is        5.5 secs

     total energy              =      -1.66582505 Ry
     estimated scf accuracy    <       0.00007414 Ry

     iteration # 80     ecut=     5.00 Ry     beta= 0.70
     Davidson diagonalization with overlap

---- Real-time Memory Report at c_bands before calling an iterative solver
            56 MiB given to the printing process from OS
             0 MiB allocation reported by mallinfo(arena+hblkhd)
          1266 MiB available memory on the node where the printing process lives
------------------
     ethr =  1.69E-07,  avg # of iterations =  1.0

     negative rho (up, down):  1.864E-01 0.000E+00

     total cpu time spent up to now is        5.5 secs

     total energy              =      -1.66580195 Ry
     estimated scf accuracy    <       0.00000061 Ry

     iteration # 81     ecut=     5.00 Ry     beta= 0.70
     Davidson diagonalization with overlap

---- Real-time Memory Report at c_bands before calling an iterative solver
            56 MiB given to the printing process from OS
             0 MiB allocation reported by mallinfo(arena+hblkhd)
          1266 MiB available memory on the node where the printing process lives
------------------
     ethr =  3.07E-08,  avg # of iterations =  2.0

     negative rho (up, down):  1.864E-01 0.000E+00

     total cpu time spent up to now is        5.6 secs

     total energy              =      -1.66580274 Ry
     estimated scf accuracy    <       0.00010453 Ry

     iteration # 82     ecut=     5.00 Ry     beta= 0.70
     Davidson diagonalization with overlap

---- Real-time Memory Report at c_bands before calling an iterative solver
            56 MiB given to the printing process from OS
             0 MiB allocation reported by mallinfo(arena+hblkhd)
          1266 MiB available memory on the node where the printing process lives
------------------
     ethr =  3.07E-08,  avg # of iterations =  1.0

     negative rho (up, down):  1.864E-01 0.000E+00

     total cpu time spent up to now is        5.7 secs

     total energy              =      -1.66580292 Ry
     estimated scf accuracy    <       0.00009387 Ry

     iteration # 83     ecut=     5.00 Ry     beta= 0.70
     Davidson diagonalization with overlap

---- Real-time Memory Report at c_bands before calling an iterative solver
            56 MiB given to the printing process from OS
             0 MiB allocation reported by mallinfo(arena+hblkhd)
          1266 MiB available memory on the node where the printing process lives
------------------
     ethr =  3.07E-08,  avg # of iterations =  1.0

     negative rho (up, down):  1.864E-01 0.000E+00

     total cpu time spent up to now is        5.7 secs

     total energy              =      -1.66580221 Ry
     estimated scf accuracy    <       0.00009120 Ry

     iteration # 84     ecut=     5.00 Ry     beta= 0.70
     Davidson diagonalization with overlap

---- Real-time Memory Report at c_bands before calling an iterative solver
            56 MiB given to the printing process from OS
             0 MiB allocation reported by mallinfo(arena+hblkhd)
          1266 MiB available memory on the node where the printing process lives
------------------
     ethr =  3.07E-08,  avg # of iterations =  2.0

     negative rho (up, down):  1.864E-01 0.000E+00

     total cpu time spent up to now is        5.8 secs

     total energy              =      -1.66581729 Ry
     estimated scf accuracy    <       0.00020929 Ry

     iteration # 85     ecut=     5.00 Ry     beta= 0.70
     Davidson diagonalization with overlap

---- Real-time Memory Report at c_bands before calling an iterative solver
            56 MiB given to the printing process from OS
             0 MiB allocation reported by mallinfo(arena+hblkhd)
          1266 MiB available memory on the node where the printing process lives
------------------
     ethr =  3.07E-08,  avg # of iterations =  2.0

     negative rho (up, down):  1.864E-01 0.000E+00

     total cpu time spent up to now is        5.9 secs

     total energy              =      -1.66582247 Ry
     estimated scf accuracy    <       0.00002945 Ry

     iteration # 86     ecut=     5.00 Ry     beta= 0.70
     Davidson diagonalization with overlap

---- Real-time Memory Report at c_bands before calling an iterative solver
            56 MiB given to the printing process from OS
             0 MiB allocation reported by mallinfo(arena+hblkhd)
          1266 MiB available memory on the node where the printing process lives
------------------
     ethr =  3.07E-08,  avg # of iterations =  1.0

     negative rho (up, down):  1.864E-01 0.000E+00

     total cpu time spent up to now is        6.0 secs

     total energy              =      -1.66582179 Ry
     estimated scf accuracy    <       0.00000011 Ry

     iteration # 87     ecut=     5.00 Ry     beta= 0.70
     Davidson diagonalization with overlap

---- Real-time Memory Report at c_bands before calling an iterative solver
            56 MiB given to the printing process from OS
             0 MiB allocation reported by mallinfo(arena+hblkhd)
          1266 MiB available memory on the node where the printing process lives
------------------
     ethr =  5.41E-09,  avg # of iterations =  1.0

     negative rho (up, down):  1.864E-01 0.000E+00

     total cpu time spent up to now is        6.0 secs

     total energy              =      -1.66582245 Ry
     estimated scf accuracy    <       0.00000591 Ry

     iteration # 88     ecut=     5.00 Ry     beta= 0.70
     Davidson diagonalization with overlap

---- Real-time Memory Report at c_bands before calling an iterative solver
            56 MiB given to the printing process from OS
             0 MiB allocation reported by mallinfo(arena+hblkhd)
          1266 MiB available memory on the node where the printing process lives
------------------
     ethr =  5.41E-09,  avg # of iterations =  3.0

     negative rho (up, down):  1.864E-01 0.000E+00

     total cpu time spent up to now is        6.1 secs

     total energy              =      -1.66583010 Ry
     estimated scf accuracy    <       0.00000021 Ry

     iteration # 89     ecut=     5.00 Ry     beta= 0.70
     Davidson diagonalization with overlap

---- Real-time Memory Report at c_bands before calling an iterative solver
            56 MiB given to the printing process from OS
             0 MiB allocation reported by mallinfo(arena+hblkhd)
          1266 MiB available memory on the node where the printing process lives
------------------
     ethr =  5.41E-09,  avg # of iterations =  2.0

     negative rho (up, down):  1.864E-01 0.000E+00

     total cpu time spent up to now is        6.2 secs

     total energy              =      -1.66581870 Ry
     estimated scf accuracy    <       0.00000015 Ry

     iteration # 90     ecut=     5.00 Ry     beta= 0.70
     Davidson diagonalization with overlap

---- Real-time Memory Report at c_bands before calling an iterative solver
            56 MiB given to the printing process from OS
             0 MiB allocation reported by mallinfo(arena+hblkhd)
          1266 MiB available memory on the node where the printing process lives
------------------
     ethr =  5.41E-09,  avg # of iterations =  4.0

     negative rho (up, down):  1.864E-01 0.000E+00

     total cpu time spent up to now is        6.2 secs

     total energy              =      -1.66581980 Ry
     estimated scf accuracy    <       0.00020151 Ry

     iteration # 91     ecut=     5.00 Ry     beta= 0.70
     Davidson diagonalization with overlap

---- Real-time Memory Report at c_bands before calling an iterative solver
            56 MiB given to the printing process from OS
             0 MiB allocation reported by mallinfo(arena+hblkhd)
          1266 MiB available memory on the node where the printing process lives
------------------
     ethr =  5.41E-09,  avg # of iterations =  1.0

     negative rho (up, down):  1.864E-01 0.000E+00

     total cpu time spent up to now is        6.3 secs

     total energy              =      -1.66581996 Ry
     estimated scf accuracy    <       0.00017335 Ry

     iteration # 92     ecut=     5.00 Ry     beta= 0.70
     Davidson diagonalization with overlap

---- Real-time Memory Report at c_bands before calling an iterative solver
            56 MiB given to the printing process from OS
             0 MiB allocation reported by mallinfo(arena+hblkhd)
          1266 MiB available memory on the node where the printing process lives
------------------
     ethr =  5.41E-09,  avg # of iterations =  1.0

     negative rho (up, down):  1.864E-01 0.000E+00

     total cpu time spent up to now is        6.4 secs

     total energy              =      -1.66581989 Ry
     estimated scf accuracy    <       0.00017560 Ry

     iteration # 93     ecut=     5.00 Ry     beta= 0.70
     Davidson diagonalization with overlap

---- Real-time Memory Report at c_bands before calling an iterative solver
            56 MiB given to the printing process from OS
             0 MiB allocation reported by mallinfo(arena+hblkhd)
          1266 MiB available memory on the node where the printing process lives
------------------
     ethr =  5.41E-09,  avg # of iterations =  1.0

     negative rho (up, down):  1.864E-01 0.000E+00

     total cpu time spent up to now is        6.4 secs

     total energy              =      -1.66580386 Ry
     estimated scf accuracy    <       0.00015927 Ry

     iteration # 94     ecut=     5.00 Ry     beta= 0.70
     Davidson diagonalization with overlap

---- Real-time Memory Report at c_bands before calling an iterative solver
            56 MiB given to the printing process from OS
             0 MiB allocation reported by mallinfo(arena+hblkhd)
          1266 MiB available memory on the node where the printing process lives
------------------
     ethr =  5.41E-09,  avg # of iterations =  2.0

     negative rho (up, down):  1.864E-01 0.000E+00

     total cpu time spent up to now is        6.5 secs

     total energy              =      -1.66580455 Ry
     estimated scf accuracy    <       0.00000488 Ry

     iteration # 95     ecut=     5.00 Ry     beta= 0.70
     Davidson diagonalization with overlap

---- Real-time Memory Report at c_bands before calling an iterative solver
            56 MiB given to the printing process from OS
             0 MiB allocation reported by mallinfo(arena+hblkhd)
          1266 MiB available memory on the node where the printing process lives
------------------
     ethr =  5.41E-09,  avg # of iterations =  1.0

     negative rho (up, down):  1.864E-01 0.000E+00

     total cpu time spent up to now is        6.6 secs

     total energy              =      -1.66581937 Ry
     estimated scf accuracy    <       0.00000270 Ry

     iteration # 96     ecut=     5.00 Ry     beta= 0.70
     Davidson diagonalization with overlap

---- Real-time Memory Report at c_bands before calling an iterative solver
            56 MiB given to the printing process from OS
             0 MiB allocation reported by mallinfo(arena+hblkhd)
          1266 MiB available memory on the node where the printing process lives
------------------
     ethr =  5.41E-09,  avg # of iterations =  2.0

     negative rho (up, down):  1.864E-01 0.000E+00

     total cpu time spent up to now is        6.7 secs

     total energy              =      -1.66582054 Ry
     estimated scf accuracy    <       0.00017214 Ry

     iteration # 97     ecut=     5.00 Ry     beta= 0.70
     Davidson diagonalization with overlap

---- Real-time Memory Report at c_bands before calling an iterative solver
            56 MiB given to the printing process from OS
             0 MiB allocation reported by mallinfo(arena+hblkhd)
          1266 MiB available memory on the node where the printing process lives
------------------
     ethr =  5.41E-09,  avg # of iterations =  1.0

     negative rho (up, down):  1.864E-01 0.000E+00

     total cpu time spent up to now is        6.7 secs

     total energy              =      -1.66580947 Ry
     estimated scf accuracy    <       0.00018752 Ry

     iteration # 98     ecut=     5.00 Ry     beta= 0.70
     Davidson diagonalization with overlap

---- Real-time Memory Report at c_bands before calling an iterative solver
            56 MiB given to the printing process from OS
             0 MiB allocation reported by mallinfo(arena+hblkhd)
          1266 MiB available memory on the node where the printing process lives
------------------
     ethr =  5.41E-09,  avg # of iterations =  3.0

     negative rho (up, down):  1.864E-01 0.000E+00

     total cpu time spent up to now is        6.8 secs

     total energy              =      -1.66581413 Ry
     estimated scf accuracy    <       0.00012138 Ry

     iteration # 99     ecut=     5.00 Ry     beta= 0.70
     Davidson diagonalization with overlap

---- Real-time Memory Report at c_bands before calling an iterative solver
            56 MiB given to the printing process from OS
             0 MiB allocation reported by mallinfo(arena+hblkhd)
          1266 MiB available memory on the node where the printing process lives
------------------
     ethr =  5.41E-09,  avg # of iterations =  4.0

     negative rho (up, down):  1.863E-01 0.000E+00

     total cpu time spent up to now is        6.9 secs

     total energy              =      -1.66583518 Ry
     estimated scf accuracy    <       0.00008371 Ry

     iteration #100     ecut=     5.00 Ry     beta= 0.70
     Davidson diagonalization with overlap

---- Real-time Memory Report at c_bands before calling an iterative solver
            56 MiB given to the printing process from OS
             0 MiB allocation reported by mallinfo(arena+hblkhd)
          1266 MiB available memory on the node where the printing process lives
------------------
     ethr =  5.41E-09,  avg # of iterations =  3.0

     negative rho (up, down):  1.863E-01 0.000E+00

     total cpu time spent up to now is        6.9 secs

     total energy              =      -1.66583663 Ry
     estimated scf accuracy    <       0.00007834 Ry

     End of self-consistent calculation

     convergence NOT achieved after 100 iterations: stopping

     Writing config to output data dir ./.save/
     Message from routine punch:
     wavefunctions written to file

     init_run     :      0.07s CPU      0.08s WALL (       1 calls)
     electrons    :      6.83s CPU      6.86s WALL (       1 calls)

     Called by init_run:
     wfcinit      :      0.00s CPU      0.01s WALL (       1 calls)
     wfcinit:atom :      0.00s CPU      0.00s WALL (       1 calls)
     wfcinit:wfcr :      0.00s CPU      0.00s WALL (       1 calls)
     potinit      :      0.04s CPU      0.05s WALL (       1 calls)
     hinit0       :      0.01s CPU      0.01s WALL (       1 calls)

     Called by electrons:
     c_bands      :      0.98s CPU      0.99s WALL (     100 calls)
     sum_band     :      0.79s CPU      0.80s WALL (     100 calls)
     v_of_rho     :      3.92s CPU      3.93s WALL (     101 calls)
     v_h          :      0.20s CPU      0.20s WALL (     101 calls)
     v_xc         :      3.72s CPU      3.73s WALL (     101 calls)
     newd         :      0.24s CPU      0.25s WALL (     101 calls)
     mix_rho      :      0.85s CPU      0.85s WALL (     100 calls)

     Called by c_bands:
     init_us_2    :      0.03s CPU      0.03s WALL (     201 calls)
     init_us_2:cp :      0.02s CPU      0.03s WALL (     201 calls)
     cegterg      :      0.96s CPU      0.97s WALL (     100 calls)

     Called by sum_band:
     sum_band:wei :      0.00s CPU      0.00s WALL (     100 calls)
     sum_band:loo :      0.23s CPU      0.23s WALL (     100 calls)
     sum_band:buf :      0.00s CPU      0.00s WALL (     100 calls)
     sum_band:ini :      0.01s CPU      0.01s WALL (     100 calls)
     sum_band:cal :      0.00s CPU      0.00s WALL (     100 calls)
     sum_band:bec :      0.00s CPU      0.00s WALL (     100 calls)
     addusdens    :      0.07s CPU      0.07s WALL (     100 calls)
     addusd:skk   :      0.03s CPU      0.03s WALL (     100 calls)
     addusd:dgemm :      0.02s CPU      0.02s WALL (     100 calls)
     addusd:qvan2 :      0.02s CPU      0.02s WALL (     100 calls)

     Called by *egterg:
     cdiaghg      :      0.00s CPU      0.00s WALL (     219 calls)
     cegterg:over :      0.01s CPU      0.01s WALL (     119 calls)
     cegterg:upda :      0.01s CPU      0.01s WALL (     119 calls)
     cegterg:last :      0.01s CPU      0.01s WALL (     114 calls)
     h_psi        :      0.91s CPU      0.92s WALL (     220 calls)
     s_psi        :      0.01s CPU      0.01s WALL (     220 calls)
     g_psi        :      0.00s CPU      0.00s WALL (     119 calls)

     Called by h_psi:
     h_psi:calbec :      0.01s CPU      0.01s WALL (     220 calls)
     vloc_psi     :      0.89s CPU      0.91s WALL (     220 calls)
     add_vuspsi   :      0.01s CPU      0.01s WALL (     220 calls)

     General routines
     calbec       :      0.01s CPU      0.01s WALL (     320 calls)
     fft          :      1.70s CPU      1.70s WALL (    1111 calls)
     ffts         :      0.15s CPU      0.15s WALL (     100 calls)
     fftw         :      1.02s CPU      1.03s WALL (    1042 calls)
     davcio       :      0.00s CPU      0.00s WALL (      19 calls)


     PWSCF        :      6.91s CPU      6.97s WALL


   This run was terminated on:  22:15:18  28Feb2022            

=------------------------------------------------------------------------------=
   JOB DONE.
=------------------------------------------------------------------------------=
