
     Program PWSCF v.7.0 starts on 28Feb2022 at  3:22:30 

     This program is part of the open-source Quantum ESPRESSO suite
     for quantum simulation of materials; please cite
         "P. Giannozzi et al., J. Phys.:Condens. Matter 21 395502 (2009);
         "P. Giannozzi et al., J. Phys.:Condens. Matter 29 465901 (2017);
         "P. Giannozzi et al., J. Chem. Phys. 152 154105 (2020);
          URL http://www.quantum-espresso.org", 
     in publications or presentations arising from this work. More details at
     http://www.quantum-espresso.org/quote

     Serial version
     554 MiB available memory on the printing compute node when the environment starts

     Waiting for input...
     Reading input from standard input

     Current dimensions of program PWSCF are:
     Max number of different atomic species (ntypx) = 10
     Max number of k-points (npk) =  40000
     Max angular momentum in pseudopotentials (lmaxx) =  4

     File ./.update deleted, as requested

     File ./.bfgs deleted, as requested

    ============================================================
    |  pseudopotential report for atomic species:  1           |
    |        pseudo potential version   7   3   2              |
    ------------------------------------------------------------
    |  hydrogen            PBE                  exchange-corr  |
    |  z =   1.    zv( 1) =   1.    exfact =   5.00000         |
    |  ifpcor =  0           atomic energy =  -0.91772 Ry      |
    |  index    orbital      occupation    energy              |
    |    1        100           1.00       -0.48               |
    |  rinner =  0.5000                                        |
    |    new generation scheme:                                |
    |    nbeta =  1     kkbeta =  271     rcloc =    0.6000    |
    |    ibeta    l     epsilon   rcut                         |
    |      1       0      -0.48   0.80                         |
    ============================================================

     IMPORTANT: XC functional enforced from input :
     Exchange-correlation= BLYP
                           (   1   3   1   3   0   0   0)
     Any further DFT definition will be discarded
     Please, verify this is what you really want


     G-vector sticks info
     --------------------
     sticks:   dense  smooth     PW     G-vecs:    dense   smooth      PW
     Sum        5721    5721   1565               326029   326029   45961

     Using Slab Decomposition



     bravais-lattice index     =            1
     lattice parameter (alat)  =      30.0000  a.u.
     unit-cell volume          =   27000.0000 (a.u.)^3
     number of atoms/cell      =            2
     number of atomic types    =            1
     number of electrons       =         2.00
     number of Kohn-Sham states=            2
     kinetic-energy cutoff     =      20.0000  Ry
     charge density cutoff     =      80.0000  Ry
     scf convergence threshold =      1.0E-08
     mixing beta               =       0.7000
     number of iterations used =            8  plain     mixing
     energy convergence thresh.=      1.0E-04
     force convergence thresh. =      1.0E-03
     Exchange-correlation= BLYP
                           (   1   3   1   3   0   0   0)
     nstep                     =           50


     celldm(1)=  30.000000  celldm(2)=   0.000000  celldm(3)=   0.000000
     celldm(4)=   0.000000  celldm(5)=   0.000000  celldm(6)=   0.000000

     crystal axes: (cart. coord. in units of alat)
               a(1) = (   1.000000   0.000000   0.000000 )  
               a(2) = (   0.000000   1.000000   0.000000 )  
               a(3) = (   0.000000   0.000000   1.000000 )  

     reciprocal axes: (cart. coord. in units 2 pi/alat)
               b(1) = (  1.000000  0.000000  0.000000 )  
               b(2) = (  0.000000  1.000000  0.000000 )  
               b(3) = (  0.000000  0.000000  1.000000 )  


     PseudoPot. # 1 for hy read from file:
     /root/q-e/pseudo/H_US.van
     MD5 check sum: a9a9bfe98ff56cf4de197d71fc46bb44
     Pseudo is Ultrasoft, Zval =  1.0
     Generated by Vanderbilt code, v. 7.3.2
     Using radial grid of  399 points,  1 beta functions with: 
                l(1) =   0
     Q(r) pseudized with  8 coefficients,  rinner =    0.500

     atomic species   valence    mass     pseudopotential
        H              1.00     1.00784     hy( 1.00)

      8 Sym. Ops. (no inversion) found


                                    s                        frac. trans.

      isym =  1     identity                                     

 cryst.   s( 1) = (     1          0          0      )
                  (     0          1          0      )
                  (     0          0          1      )

 cart.    s( 1) = (  1.0000000  0.0000000  0.0000000 )
                  (  0.0000000  1.0000000  0.0000000 )
                  (  0.0000000  0.0000000  1.0000000 )


      isym =  2     180 deg rotation - cart. axis [1,0,0]        

 cryst.   s( 2) = (     1          0          0      )
                  (     0         -1          0      )
                  (     0          0         -1      )

 cart.    s( 2) = (  1.0000000  0.0000000  0.0000000 )
                  (  0.0000000 -1.0000000  0.0000000 )
                  (  0.0000000  0.0000000 -1.0000000 )


      isym =  3      90 deg rotation - cart. axis [-1,0,0]       

 cryst.   s( 3) = (     1          0          0      )
                  (     0          0         -1      )
                  (     0          1          0      )

 cart.    s( 3) = (  1.0000000  0.0000000  0.0000000 )
                  (  0.0000000  0.0000000  1.0000000 )
                  (  0.0000000 -1.0000000  0.0000000 )


      isym =  4      90 deg rotation - cart. axis [1,0,0]        

 cryst.   s( 4) = (     1          0          0      )
                  (     0          0          1      )
                  (     0         -1          0      )

 cart.    s( 4) = (  1.0000000  0.0000000  0.0000000 )
                  (  0.0000000  0.0000000 -1.0000000 )
                  (  0.0000000  1.0000000  0.0000000 )


      isym =  5     inv. 180 deg rotation - cart. axis [0,0,1]   

 cryst.   s( 5) = (     1          0          0      )
                  (     0          1          0      )
                  (     0          0         -1      )

 cart.    s( 5) = (  1.0000000  0.0000000  0.0000000 )
                  (  0.0000000  1.0000000  0.0000000 )
                  (  0.0000000  0.0000000 -1.0000000 )


      isym =  6     inv. 180 deg rotation - cart. axis [0,1,0]   

 cryst.   s( 6) = (     1          0          0      )
                  (     0         -1          0      )
                  (     0          0          1      )

 cart.    s( 6) = (  1.0000000  0.0000000  0.0000000 )
                  (  0.0000000 -1.0000000  0.0000000 )
                  (  0.0000000  0.0000000  1.0000000 )


      isym =  7     inv. 180 deg rotation - cart. axis [0,1,1]   

 cryst.   s( 7) = (     1          0          0      )
                  (     0          0         -1      )
                  (     0         -1          0      )

 cart.    s( 7) = (  1.0000000  0.0000000  0.0000000 )
                  (  0.0000000  0.0000000 -1.0000000 )
                  (  0.0000000 -1.0000000  0.0000000 )


      isym =  8     inv. 180 deg rotation - cart. axis [0,1,-1]  

 cryst.   s( 8) = (     1          0          0      )
                  (     0          0          1      )
                  (     0          1          0      )

 cart.    s( 8) = (  1.0000000  0.0000000  0.0000000 )
                  (  0.0000000  0.0000000  1.0000000 )
                  (  0.0000000  1.0000000  0.0000000 )


     point group C_4v (4mm) 
     there are  5 classes
     the character table:

       E     2C4   C2    2s_v  2s_d 
A_1    1.00  1.00  1.00  1.00  1.00
A_2    1.00  1.00  1.00 -1.00 -1.00
B_1    1.00 -1.00  1.00  1.00 -1.00
B_2    1.00 -1.00  1.00 -1.00  1.00
E      2.00  0.00 -2.00  0.00  0.00

     the symmetry operations in each class and the name of the first element:

     E        1
          identity                                               
     2C4      3    4
           90 deg rotation - cart. axis [-1,0,0]                 
     C2       2
          180 deg rotation - cart. axis [1,0,0]                  
     2s_v     5    6
          inv. 180 deg rotation - cart. axis [0,0,1]             
     2s_d     7    8
          inv. 180 deg rotation - cart. axis [0,1,1]             

   Cartesian axes

     site n.     atom                  positions (alat units)
         1           H   tau(   1) = (   0.0000000   0.0000000   0.0000000  )
         2           H   tau(   2) = (   0.0503927   0.0000000   0.0000000  )

   Crystallographic axes

     site n.     atom                  positions (cryst. coord.)
         1           H   tau(   1) = (  0.0000000  0.0000000  0.0000000  )
         2           H   tau(   2) = (  0.0503927  0.0000000  0.0000000  )

     number of k points=     1
                       cart. coord. in units 2pi/alat
        k(    1) = (  -0.5000000  -0.5000000  -0.5000000), wk =   2.0000000

                       cryst. coord.
        k(    1) = (  -0.5000000  -0.5000000  -0.5000000), wk =   2.0000000

     Dense  grid:   326029 G-vectors     FFT dimensions: (  90,  90,  90)

     Dynamical RAM for                 wfc:       1.24 MB

     Dynamical RAM for     wfc (w. buffer):       1.24 MB

     Dynamical RAM for           str. fact:       4.97 MB

     Dynamical RAM for           local pot:       0.00 MB

     Dynamical RAM for          nlocal pot:       1.24 MB

     Dynamical RAM for                qrad:       0.01 MB

     Dynamical RAM for          rho,v,vnew:      31.61 MB

     Dynamical RAM for               rhoin:      10.54 MB

     Dynamical RAM for            rho*nmix:      79.60 MB

     Dynamical RAM for           G-vectors:      21.14 MB

     Dynamical RAM for          h,s,v(r/c):       0.00 MB

     Dynamical RAM for          <psi|beta>:       0.00 MB

     Dynamical RAM for                 psi:       2.49 MB

     Dynamical RAM for                hpsi:       2.49 MB

     Dynamical RAM for                spsi:       2.49 MB

     Dynamical RAM for      wfcinit/wfcrot:       2.49 MB

     Dynamical RAM for           addusdens:      29.85 MB

     Dynamical RAM for          addusforce:      42.29 MB

     Estimated static dynamical RAM per process >     108.52 MB

     Estimated max dynamical RAM per process >     230.40 MB

     Initial potential from superposition of free atoms

     starting charge       2.0000, renormalised to       2.0000

     negative rho (up, down):  5.649E-02 0.000E+00
     Starting wfcs are    2 randomized atomic wfcs

     total cpu time spent up to now is        0.6 secs

     Self-consistent Calculation

     iteration #  1     ecut=    20.00 Ry     beta= 0.70
     Davidson diagonalization with overlap

---- Real-time Memory Report at c_bands before calling an iterative solver
           194 MiB given to the printing process from OS
             0 MiB allocation reported by mallinfo(arena+hblkhd)
           426 MiB available memory on the node where the printing process lives
------------------
     ethr =  1.00E-02,  avg # of iterations =  5.0

     negative rho (up, down):  8.316E-02 0.000E+00

     total cpu time spent up to now is        1.4 secs

     total energy              =      -2.30801721 Ry
     estimated scf accuracy    <       0.10338149 Ry

     iteration #  2     ecut=    20.00 Ry     beta= 0.70
     Davidson diagonalization with overlap

---- Real-time Memory Report at c_bands before calling an iterative solver
           241 MiB given to the printing process from OS
             0 MiB allocation reported by mallinfo(arena+hblkhd)
           326 MiB available memory on the node where the printing process lives
------------------
     ethr =  5.17E-03,  avg # of iterations =  1.0

     negative rho (up, down):  8.896E-02 0.000E+00

     total cpu time spent up to now is        1.9 secs

     total energy              =      -2.31125766 Ry
     estimated scf accuracy    <       0.00123133 Ry

     iteration #  3     ecut=    20.00 Ry     beta= 0.70
     Davidson diagonalization with overlap

---- Real-time Memory Report at c_bands before calling an iterative solver
           251 MiB given to the printing process from OS
             0 MiB allocation reported by mallinfo(arena+hblkhd)
           316 MiB available memory on the node where the printing process lives
------------------
     ethr =  6.16E-05,  avg # of iterations =  9.0

     negative rho (up, down):  8.878E-02 0.000E+00

     total cpu time spent up to now is        2.8 secs

     total energy              =      -2.31171990 Ry
     estimated scf accuracy    <       0.00001510 Ry

     iteration #  4     ecut=    20.00 Ry     beta= 0.70
     Davidson diagonalization with overlap

---- Real-time Memory Report at c_bands before calling an iterative solver
           261 MiB given to the printing process from OS
             0 MiB allocation reported by mallinfo(arena+hblkhd)
           306 MiB available memory on the node where the printing process lives
------------------
     ethr =  7.55E-07,  avg # of iterations =  5.0

     negative rho (up, down):  8.890E-02 0.000E+00

     total cpu time spent up to now is        3.5 secs

     total energy              =      -2.31164380 Ry
     estimated scf accuracy    <       0.00000049 Ry

     iteration #  5     ecut=    20.00 Ry     beta= 0.70
     Davidson diagonalization with overlap

---- Real-time Memory Report at c_bands before calling an iterative solver
           271 MiB given to the printing process from OS
             0 MiB allocation reported by mallinfo(arena+hblkhd)
           296 MiB available memory on the node where the printing process lives
------------------
     ethr =  2.44E-08,  avg # of iterations =  2.0

     negative rho (up, down):  8.891E-02 0.000E+00

     total cpu time spent up to now is        4.1 secs

     total energy              =      -2.31163134 Ry
     estimated scf accuracy    <       0.00000002 Ry

     iteration #  6     ecut=    20.00 Ry     beta= 0.70
     Davidson diagonalization with overlap

---- Real-time Memory Report at c_bands before calling an iterative solver
           281 MiB given to the printing process from OS
             0 MiB allocation reported by mallinfo(arena+hblkhd)
           286 MiB available memory on the node where the printing process lives
------------------
     ethr =  8.73E-10,  avg # of iterations =  3.0

     negative rho (up, down):  8.890E-02 0.000E+00

     total cpu time spent up to now is        4.7 secs

     End of self-consistent calculation

          k =-0.5000-0.5000-0.5000 ( 40800 PWs)   bands (ev):

   -10.2678  -1.4147

     occupation numbers 
     1.0000   0.0000

     highest occupied, lowest unoccupied level (ev):   -10.2678   -1.4147

!    total energy              =      -2.31165161 Ry
     estimated scf accuracy    <          3.5E-09 Ry

     The total energy is the sum of the following terms:
     one-electron contribution =      -4.08464950 Ry
     hartree contribution      =       2.18578034 Ry
     xc contribution           =      -1.35777503 Ry
     ewald contribution        =       0.94499258 Ry

     convergence has been achieved in   6 iterations

     Forces acting on atoms (cartesian axes, Ry/au):

     atom    1 type  1   force =     0.06912773    0.00000000    0.00000000
     atom    2 type  1   force =    -0.06912773    0.00000000    0.00000000
     The non-local contrib.  to forces
     atom    1 type  1   force =     0.09481739    0.00000000    0.00000000
     atom    2 type  1   force =    -0.09573596    0.00000000    0.00000000
     The ionic contribution  to forces
     atom    1 type  1   force =    -0.87461651   -0.00000000   -0.00000000
     atom    2 type  1   force =     0.87461651    0.00000000   -0.00000000
     The local contribution  to forces
     atom    1 type  1   force =     0.84852840    0.00000000    0.00000000
     atom    2 type  1   force =    -0.84844816    0.00000000    0.00000000
     The core correction contribution to forces
     atom    1 type  1   force =     0.00000000    0.00000000    0.00000000
     atom    2 type  1   force =     0.00000000    0.00000000    0.00000000
     The Hubbard contrib.    to forces
     atom    1 type  1   force =     0.00000000    0.00000000    0.00000000
     atom    2 type  1   force =     0.00000000    0.00000000    0.00000000
     The SCF correction term to forces
     atom    1 type  1   force =    -0.00004544   -0.00000000   -0.00000000
     atom    2 type  1   force =    -0.00000400   -0.00000000   -0.00000000

     Total force =     0.097761     Total SCF correction =     0.000046

     BFGS Geometry Optimization
     Energy error            =      0.0E+00 Ry
     Gradient error          =      6.9E-02 Ry/Bohr

     number of scf cycles    =   1
     number of bfgs steps    =   0

     energy             new  =      -2.3116516101 Ry

     new trust radius        =       0.0691277257 bohr
     new conv_thr            =       0.0000000100 Ry


ATOMIC_POSITIONS (angstrom)
H             0.0365808171        0.0000000000        0.0000000000
H             0.7634191829        0.0000000000        0.0000000000



     Writing config-only to output data dir ./.save/
     NEW-OLD atomic charge density approx. for the potential

     negative rho (up, down):  8.531E-02 0.000E+00

     total cpu time spent up to now is        5.3 secs

     Self-consistent Calculation

     iteration #  1     ecut=    20.00 Ry     beta= 0.70
     Davidson diagonalization with overlap

---- Real-time Memory Report at c_bands before calling an iterative solver
           286 MiB given to the printing process from OS
             0 MiB allocation reported by mallinfo(arena+hblkhd)
           418 MiB available memory on the node where the printing process lives
------------------
     ethr =  1.00E-06,  avg # of iterations =  4.0

     negative rho (up, down):  9.106E-02 0.000E+00

     total cpu time spent up to now is        6.1 secs

     total energy              =      -2.31254634 Ry
     estimated scf accuracy    <       0.00141022 Ry

     iteration #  2     ecut=    20.00 Ry     beta= 0.70
     Davidson diagonalization with overlap

---- Real-time Memory Report at c_bands before calling an iterative solver
           286 MiB given to the printing process from OS
             0 MiB allocation reported by mallinfo(arena+hblkhd)
           320 MiB available memory on the node where the printing process lives
------------------
     ethr =  7.05E-05,  avg # of iterations =  1.0

     negative rho (up, down):  9.242E-02 0.000E+00

     total cpu time spent up to now is        6.7 secs

     total energy              =      -2.31179823 Ry
     estimated scf accuracy    <       0.00001726 Ry

     iteration #  3     ecut=    20.00 Ry     beta= 0.70
     Davidson diagonalization with overlap

---- Real-time Memory Report at c_bands before calling an iterative solver
           286 MiB given to the printing process from OS
             0 MiB allocation reported by mallinfo(arena+hblkhd)
           310 MiB available memory on the node where the printing process lives
------------------
     ethr =  8.63E-07,  avg # of iterations =  5.0

     negative rho (up, down):  9.269E-02 0.000E+00

     total cpu time spent up to now is        7.4 secs

     total energy              =      -2.31159748 Ry
     estimated scf accuracy    <       0.00000062 Ry

     iteration #  4     ecut=    20.00 Ry     beta= 0.70
     Davidson diagonalization with overlap

---- Real-time Memory Report at c_bands before calling an iterative solver
           286 MiB given to the printing process from OS
             0 MiB allocation reported by mallinfo(arena+hblkhd)
           300 MiB available memory on the node where the printing process lives
------------------
     ethr =  3.08E-08,  avg # of iterations =  2.0

     negative rho (up, down):  9.269E-02 0.000E+00

     total cpu time spent up to now is        8.0 secs

     total energy              =      -2.31161332 Ry
     estimated scf accuracy    <       0.00000001 Ry

     iteration #  5     ecut=    20.00 Ry     beta= 0.70
     Davidson diagonalization with overlap

---- Real-time Memory Report at c_bands before calling an iterative solver
           286 MiB given to the printing process from OS
             0 MiB allocation reported by mallinfo(arena+hblkhd)
           291 MiB available memory on the node where the printing process lives
------------------
     ethr =  5.17E-10,  avg # of iterations =  3.0

     negative rho (up, down):  9.268E-02 0.000E+00

     total cpu time spent up to now is        8.6 secs

     End of self-consistent calculation

          k =-0.5000-0.5000-0.5000 ( 40800 PWs)   bands (ev):

   -10.6214  -1.3782

     occupation numbers 
     1.0000   0.0000

     highest occupied, lowest unoccupied level (ev):   -10.6214   -1.3782

!    total energy              =      -2.31160858 Ry
     estimated scf accuracy    <          3.8E-09 Ry

     The total energy is the sum of the following terms:
     one-electron contribution =      -4.26942538 Ry
     hartree contribution      =       2.28251588 Ry
     xc contribution           =      -1.40279331 Ry
     ewald contribution        =       1.07809423 Ry

     convergence has been achieved in   5 iterations

     Forces acting on atoms (cartesian axes, Ry/au):

     atom    1 type  1   force =    -0.03766329    0.00000000    0.00000000
     atom    2 type  1   force =     0.03766329    0.00000000    0.00000000
     The non-local contrib.  to forces
     atom    1 type  1   force =     0.09808098    0.00000000    0.00000000
     atom    2 type  1   force =    -0.09859209    0.00000000    0.00000000
     The ionic contribution  to forces
     atom    1 type  1   force =    -1.05969495   -0.00000000   -0.00000000
     atom    2 type  1   force =     1.05969495    0.00000000   -0.00000000
     The local contribution  to forces
     atom    1 type  1   force =     0.92373019    0.00000000    0.00000000
     atom    2 type  1   force =    -0.92371478    0.00000000    0.00000000
     The core correction contribution to forces
     atom    1 type  1   force =     0.00000000    0.00000000    0.00000000
     atom    2 type  1   force =     0.00000000    0.00000000    0.00000000
     The Hubbard contrib.    to forces
     atom    1 type  1   force =     0.00000000    0.00000000    0.00000000
     atom    2 type  1   force =     0.00000000    0.00000000    0.00000000
     The SCF correction term to forces
     atom    1 type  1   force =    -0.00020777    0.00000000    0.00000000
     atom    2 type  1   force =    -0.00015304    0.00000000   -0.00000000

     Total force =     0.053264     Total SCF correction =     0.000258
     Energy error            =      4.3E-05 Ry
     Gradient error          =      3.8E-02 Ry/Bohr

     number of scf cycles    =   2
     number of bfgs steps    =   1

     energy             old  =      -2.3116516101 Ry
     energy             new  =      -2.3116085811 Ry

     CASE: energy            _new > energy            _old

     new trust radius        =       0.0344089461 bohr
     new conv_thr            =       0.0000000100 Ry


ATOMIC_POSITIONS (angstrom)
H             0.0182084301        0.0000000000        0.0000000000
H             0.7817915699        0.0000000000        0.0000000000



     Writing config-only to output data dir ./.save/
     NEW-OLD atomic charge density approx. for the potential

     negative rho (up, down):  9.377E-02 0.000E+00

     total cpu time spent up to now is        9.2 secs

     Self-consistent Calculation

     iteration #  1     ecut=    20.00 Ry     beta= 0.70
     Davidson diagonalization with overlap

---- Real-time Memory Report at c_bands before calling an iterative solver
           286 MiB given to the printing process from OS
             0 MiB allocation reported by mallinfo(arena+hblkhd)
           416 MiB available memory on the node where the printing process lives
------------------
     ethr =  1.00E-06,  avg # of iterations =  4.0

     negative rho (up, down):  9.140E-02 0.000E+00

     total cpu time spent up to now is        9.9 secs

     total energy              =      -2.31293551 Ry
     estimated scf accuracy    <       0.00038105 Ry

     iteration #  2     ecut=    20.00 Ry     beta= 0.70
     Davidson diagonalization with overlap

---- Real-time Memory Report at c_bands before calling an iterative solver
           286 MiB given to the printing process from OS
             0 MiB allocation reported by mallinfo(arena+hblkhd)
           319 MiB available memory on the node where the printing process lives
------------------
     ethr =  1.91E-05,  avg # of iterations =  1.0

     negative rho (up, down):  9.098E-02 0.000E+00

     total cpu time spent up to now is       10.6 secs

     total energy              =      -2.31327253 Ry
     estimated scf accuracy    <       0.00000517 Ry

     iteration #  3     ecut=    20.00 Ry     beta= 0.70
     Davidson diagonalization with overlap

---- Real-time Memory Report at c_bands before calling an iterative solver
           286 MiB given to the printing process from OS
             0 MiB allocation reported by mallinfo(arena+hblkhd)
           309 MiB available memory on the node where the printing process lives
------------------
     ethr =  2.59E-07,  avg # of iterations =  3.0

     negative rho (up, down):  9.107E-02 0.000E+00

     total cpu time spent up to now is       11.3 secs

     total energy              =      -2.31321919 Ry
     estimated scf accuracy    <       0.00000057 Ry

     iteration #  4     ecut=    20.00 Ry     beta= 0.70
     Davidson diagonalization with overlap

---- Real-time Memory Report at c_bands before calling an iterative solver
           286 MiB given to the printing process from OS
             0 MiB allocation reported by mallinfo(arena+hblkhd)
           299 MiB available memory on the node where the printing process lives
------------------
     ethr =  2.86E-08,  avg # of iterations =  3.0

     negative rho (up, down):  9.102E-02 0.000E+00

     total cpu time spent up to now is       12.1 secs

     total energy              =      -2.31325204 Ry
     estimated scf accuracy    <       0.00000027 Ry

     iteration #  5     ecut=    20.00 Ry     beta= 0.70
     Davidson diagonalization with overlap

---- Real-time Memory Report at c_bands before calling an iterative solver
           286 MiB given to the printing process from OS
             0 MiB allocation reported by mallinfo(arena+hblkhd)
           289 MiB available memory on the node where the printing process lives
------------------
     ethr =  1.35E-08,  avg # of iterations =  2.0

     negative rho (up, down):  9.101E-02 0.000E+00

     total cpu time spent up to now is       12.8 secs

     total energy              =      -2.31325276 Ry
     estimated scf accuracy    <       0.00000002 Ry

     iteration #  6     ecut=    20.00 Ry     beta= 0.70
     Davidson diagonalization with overlap

---- Real-time Memory Report at c_bands before calling an iterative solver
           287 MiB given to the printing process from OS
             0 MiB allocation reported by mallinfo(arena+hblkhd)
           279 MiB available memory on the node where the printing process lives
------------------
     ethr =  8.97E-10,  avg # of iterations =  2.0

     negative rho (up, down):  9.099E-02 0.000E+00

     total cpu time spent up to now is       13.4 secs

     End of self-consistent calculation

          k =-0.5000-0.5000-0.5000 ( 40800 PWs)   bands (ev):

   -10.4398  -1.4021

     occupation numbers 
     1.0000   0.0000

     highest occupied, lowest unoccupied level (ev):   -10.4398   -1.4021

!    total energy              =      -2.31327583 Ry
     estimated scf accuracy    <          9.9E-09 Ry

     The total energy is the sum of the following terms:
     one-electron contribution =      -4.17460219 Ry
     hartree contribution      =       2.23285308 Ry
     xc contribution           =      -1.37958142 Ry
     ewald contribution        =       1.00805470 Ry

     convergence has been achieved in   6 iterations

     Forces acting on atoms (cartesian axes, Ry/au):

     atom    1 type  1   force =     0.01912230    0.00000000    0.00000000
     atom    2 type  1   force =    -0.01912230    0.00000000    0.00000000
     The non-local contrib.  to forces
     atom    1 type  1   force =     0.09331141    0.00000000    0.00000000
     atom    2 type  1   force =    -0.09409514    0.00000000    0.00000000
     The ionic contribution  to forces
     atom    1 type  1   force =    -0.96009837   -0.00000000   -0.00000000
     atom    2 type  1   force =     0.96009837   -0.00000000   -0.00000000
     The local contribution  to forces
     atom    1 type  1   force =     0.88559295    0.00000000    0.00000000
     atom    2 type  1   force =    -0.88553129    0.00000000    0.00000000
     The core correction contribution to forces
     atom    1 type  1   force =     0.00000000    0.00000000    0.00000000
     atom    2 type  1   force =     0.00000000    0.00000000    0.00000000
     The Hubbard contrib.    to forces
     atom    1 type  1   force =     0.00000000    0.00000000    0.00000000
     atom    2 type  1   force =     0.00000000    0.00000000    0.00000000
     The SCF correction term to forces
     atom    1 type  1   force =    -0.00013618   -0.00000000    0.00000000
     atom    2 type  1   force =    -0.00004674   -0.00000000    0.00000000

     Total force =     0.027043     Total SCF correction =     0.000144
     Energy error            =      1.6E-03 Ry
     Gradient error          =      1.9E-02 Ry/Bohr

     number of scf cycles    =   3
     number of bfgs steps    =   1

     energy             old  =      -2.3116516101 Ry
     energy             new  =      -2.3132758301 Ry

     CASE: energy            _new < energy            _old

     new trust radius        =       0.0131581403 bohr
     new conv_thr            =       0.0000000016 Ry


ATOMIC_POSITIONS (angstrom)
H             0.0251714181        0.0000000000        0.0000000000
H             0.7748285819        0.0000000000        0.0000000000



     Writing config-only to output data dir ./.save/
     NEW-OLD atomic charge density approx. for the potential

     negative rho (up, down):  9.042E-02 0.000E+00

     total cpu time spent up to now is       14.1 secs

     Self-consistent Calculation

     iteration #  1     ecut=    20.00 Ry     beta= 0.70
     Davidson diagonalization with overlap

---- Real-time Memory Report at c_bands before calling an iterative solver
           287 MiB given to the printing process from OS
             0 MiB allocation reported by mallinfo(arena+hblkhd)
           416 MiB available memory on the node where the printing process lives
------------------
     ethr =  1.00E-06,  avg # of iterations =  3.0

     negative rho (up, down):  9.144E-02 0.000E+00

     total cpu time spent up to now is       14.8 secs

     total energy              =      -2.31325205 Ry
     estimated scf accuracy    <       0.00005410 Ry

     iteration #  2     ecut=    20.00 Ry     beta= 0.70
     Davidson diagonalization with overlap

---- Real-time Memory Report at c_bands before calling an iterative solver
           287 MiB given to the printing process from OS
             0 MiB allocation reported by mallinfo(arena+hblkhd)
           319 MiB available memory on the node where the printing process lives
------------------
     ethr =  2.70E-06,  avg # of iterations =  2.0

     negative rho (up, down):  9.164E-02 0.000E+00

     total cpu time spent up to now is       15.5 secs

     total energy              =      -2.31312011 Ry
     estimated scf accuracy    <       0.00000067 Ry

     iteration #  3     ecut=    20.00 Ry     beta= 0.70
     Davidson diagonalization with overlap

---- Real-time Memory Report at c_bands before calling an iterative solver
           287 MiB given to the printing process from OS
             0 MiB allocation reported by mallinfo(arena+hblkhd)
           309 MiB available memory on the node where the printing process lives
------------------
     ethr =  3.36E-08,  avg # of iterations =  2.0

     negative rho (up, down):  9.164E-02 0.000E+00

     total cpu time spent up to now is       16.1 secs

     total energy              =      -2.31312448 Ry
     estimated scf accuracy    <       0.00000007 Ry

     iteration #  4     ecut=    20.00 Ry     beta= 0.70
     Davidson diagonalization with overlap

---- Real-time Memory Report at c_bands before calling an iterative solver
           287 MiB given to the printing process from OS
             0 MiB allocation reported by mallinfo(arena+hblkhd)
           299 MiB available memory on the node where the printing process lives
------------------
     ethr =  3.37E-09,  avg # of iterations =  3.0

     negative rho (up, down):  9.165E-02 0.000E+00

     total cpu time spent up to now is       16.8 secs

     total energy              =      -2.31311467 Ry
     estimated scf accuracy    <       0.00000005 Ry

     iteration #  5     ecut=    20.00 Ry     beta= 0.70
     Davidson diagonalization with overlap

---- Real-time Memory Report at c_bands before calling an iterative solver
           287 MiB given to the printing process from OS
             0 MiB allocation reported by mallinfo(arena+hblkhd)
           289 MiB available memory on the node where the printing process lives
------------------
     ethr =  2.53E-09,  avg # of iterations =  3.0

     negative rho (up, down):  9.165E-02 0.000E+00

     total cpu time spent up to now is       17.5 secs

     total energy              =      -2.31311278 Ry
     estimated scf accuracy    <          4.7E-09 Ry

     iteration #  6     ecut=    20.00 Ry     beta= 0.70
     Davidson diagonalization with overlap

---- Real-time Memory Report at c_bands before calling an iterative solver
           287 MiB given to the printing process from OS
             0 MiB allocation reported by mallinfo(arena+hblkhd)
           279 MiB available memory on the node where the printing process lives
------------------
     ethr =  2.35E-10,  avg # of iterations =  3.0

     negative rho (up, down):  9.166E-02 0.000E+00

     total cpu time spent up to now is       18.1 secs

     total energy              =      -2.31310136 Ry
     estimated scf accuracy    <          1.8E-09 Ry

     iteration #  7     ecut=    20.00 Ry     beta= 0.70
     Davidson diagonalization with overlap

---- Real-time Memory Report at c_bands before calling an iterative solver
           297 MiB given to the printing process from OS
             0 MiB allocation reported by mallinfo(arena+hblkhd)
           269 MiB available memory on the node where the printing process lives
------------------
     ethr =  8.91E-11,  avg # of iterations =  4.0

     negative rho (up, down):  9.166E-02 0.000E+00

     total cpu time spent up to now is       18.9 secs

     total energy              =      -2.31310646 Ry
     estimated scf accuracy    <       0.00000001 Ry

     iteration #  8     ecut=    20.00 Ry     beta= 0.70
     Davidson diagonalization with overlap

---- Real-time Memory Report at c_bands before calling an iterative solver
           307 MiB given to the printing process from OS
             0 MiB allocation reported by mallinfo(arena+hblkhd)
           259 MiB available memory on the node where the printing process lives
------------------
     ethr =  8.91E-11,  avg # of iterations =  4.0

     negative rho (up, down):  9.165E-02 0.000E+00

     total cpu time spent up to now is       19.5 secs

     End of self-consistent calculation

          k =-0.5000-0.5000-0.5000 ( 40800 PWs)   bands (ev):

   -10.5083  -1.3939

     occupation numbers 
     1.0000   0.0000

     highest occupied, lowest unoccupied level (ev):   -10.5083   -1.3939

!    total energy              =      -2.31311361 Ry
     estimated scf accuracy    <          8.5E-10 Ry

     The total energy is the sum of the following terms:
     one-electron contribution =      -4.21004369 Ry
     hartree contribution      =       2.25140735 Ry
     xc contribution           =      -1.38826787 Ry
     ewald contribution        =       1.03379061 Ry

     convergence has been achieved in   8 iterations

     Forces acting on atoms (cartesian axes, Ry/au):

     atom    1 type  1   force =    -0.00159265    0.00000000    0.00000000
     atom    2 type  1   force =     0.00159265    0.00000000    0.00000000
     The non-local contrib.  to forces
     atom    1 type  1   force =     0.09401188    0.00000000    0.00000000
     atom    2 type  1   force =    -0.09517073    0.00000000    0.00000000
     The ionic contribution  to forces
     atom    1 type  1   force =    -0.99612538   -0.00000000   -0.00000000
     atom    2 type  1   force =     0.99612538   -0.00000000   -0.00000000
     The local contribution  to forces
     atom    1 type  1   force =     0.90004521    0.00000000    0.00000000
     atom    2 type  1   force =    -0.89988300    0.00000000    0.00000000
     The core correction contribution to forces
     atom    1 type  1   force =     0.00000000    0.00000000    0.00000000
     atom    2 type  1   force =     0.00000000    0.00000000    0.00000000
     The Hubbard contrib.    to forces
     atom    1 type  1   force =     0.00000000    0.00000000    0.00000000
     atom    2 type  1   force =     0.00000000    0.00000000    0.00000000
     The SCF correction term to forces
     atom    1 type  1   force =    -0.00011865   -0.00000000   -0.00000000
     atom    2 type  1   force =    -0.00007326   -0.00000000   -0.00000000

     Total force =     0.002252     Total SCF correction =     0.000139
     Energy error            =      1.6E-04 Ry
     Gradient error          =      1.6E-03 Ry/Bohr

     number of scf cycles    =   4
     number of bfgs steps    =   2

     energy             old  =      -2.3132758301 Ry
     energy             new  =      -2.3131136065 Ry

     CASE: energy            _new > energy            _old

     new trust radius        =       0.0049752257 bohr
     new conv_thr            =       0.0000000016 Ry


ATOMIC_POSITIONS (angstrom)
H             0.0208412062        0.0000000000        0.0000000000
H             0.7791587938        0.0000000000        0.0000000000



     Writing config-only to output data dir ./.save/
     NEW-OLD atomic charge density approx. for the potential

     negative rho (up, down):  9.196E-02 0.000E+00

     total cpu time spent up to now is       20.1 secs

     Self-consistent Calculation

     iteration #  1     ecut=    20.00 Ry     beta= 0.70
     Davidson diagonalization with overlap

---- Real-time Memory Report at c_bands before calling an iterative solver
           307 MiB given to the printing process from OS
             0 MiB allocation reported by mallinfo(arena+hblkhd)
           416 MiB available memory on the node where the printing process lives
------------------
     ethr =  1.00E-06,  avg # of iterations =  3.0

     negative rho (up, down):  9.136E-02 0.000E+00

     total cpu time spent up to now is       20.9 secs

     total energy              =      -2.31319363 Ry
     estimated scf accuracy    <       0.00002069 Ry

     iteration #  2     ecut=    20.00 Ry     beta= 0.70
     Davidson diagonalization with overlap

---- Real-time Memory Report at c_bands before calling an iterative solver
           307 MiB given to the printing process from OS
             0 MiB allocation reported by mallinfo(arena+hblkhd)
           319 MiB available memory on the node where the printing process lives
------------------
     ethr =  1.03E-06,  avg # of iterations =  2.0

     negative rho (up, down):  9.126E-02 0.000E+00

     total cpu time spent up to now is       21.6 secs

     total energy              =      -2.31325511 Ry
     estimated scf accuracy    <       0.00000024 Ry

     iteration #  3     ecut=    20.00 Ry     beta= 0.70
     Davidson diagonalization with overlap

---- Real-time Memory Report at c_bands before calling an iterative solver
           307 MiB given to the printing process from OS
             0 MiB allocation reported by mallinfo(arena+hblkhd)
           309 MiB available memory on the node where the printing process lives
------------------
     ethr =  1.19E-08,  avg # of iterations =  2.0

     negative rho (up, down):  9.124E-02 0.000E+00

     total cpu time spent up to now is       22.2 secs

     total energy              =      -2.31328096 Ry
     estimated scf accuracy    <       0.00000001 Ry

     iteration #  4     ecut=    20.00 Ry     beta= 0.70
     Davidson diagonalization with overlap

---- Real-time Memory Report at c_bands before calling an iterative solver
           307 MiB given to the printing process from OS
             0 MiB allocation reported by mallinfo(arena+hblkhd)
           299 MiB available memory on the node where the printing process lives
------------------
     ethr =  6.63E-10,  avg # of iterations =  3.0

     negative rho (up, down):  9.125E-02 0.000E+00

     total cpu time spent up to now is       22.9 secs

     total energy              =      -2.31326287 Ry
     estimated scf accuracy    <          9.3E-09 Ry

     iteration #  5     ecut=    20.00 Ry     beta= 0.70
     Davidson diagonalization with overlap

---- Real-time Memory Report at c_bands before calling an iterative solver
           307 MiB given to the printing process from OS
             0 MiB allocation reported by mallinfo(arena+hblkhd)
           289 MiB available memory on the node where the printing process lives
------------------
     ethr =  4.65E-10,  avg # of iterations =  4.0

     negative rho (up, down):  9.125E-02 0.000E+00

     total cpu time spent up to now is       23.6 secs

     total energy              =      -2.31327205 Ry
     estimated scf accuracy    <       0.00000001 Ry

     iteration #  6     ecut=    20.00 Ry     beta= 0.70
     Davidson diagonalization with overlap

---- Real-time Memory Report at c_bands before calling an iterative solver
           307 MiB given to the printing process from OS
             0 MiB allocation reported by mallinfo(arena+hblkhd)
           279 MiB available memory on the node where the printing process lives
------------------
     ethr =  4.65E-10,  avg # of iterations =  3.0

     negative rho (up, down):  9.125E-02 0.000E+00

     total cpu time spent up to now is       24.2 secs

     End of self-consistent calculation

          k =-0.5000-0.5000-0.5000 ( 40800 PWs)   bands (ev):

   -10.4660  -1.3965

     occupation numbers 
     1.0000   0.0000

     highest occupied, lowest unoccupied level (ev):   -10.4660   -1.3965

!    total energy              =      -2.31328202 Ry
     estimated scf accuracy    <          1.6E-09 Ry

     The total energy is the sum of the following terms:
     one-electron contribution =      -4.18794676 Ry
     hartree contribution      =       2.23985782 Ry
     xc contribution           =      -1.38286758 Ry
     ewald contribution        =       1.01767450 Ry

     convergence has been achieved in   6 iterations

     Forces acting on atoms (cartesian axes, Ry/au):

     atom    1 type  1   force =     0.01155740    0.00000000    0.00000000
     atom    2 type  1   force =    -0.01155740    0.00000000    0.00000000
     The non-local contrib.  to forces
     atom    1 type  1   force =     0.09368666    0.00000000    0.00000000
     atom    2 type  1   force =    -0.09433871    0.00000000    0.00000000
     The ionic contribution  to forces
     atom    1 type  1   force =    -0.97348742   -0.00000000   -0.00000000
     atom    2 type  1   force =     0.97348742    0.00000000   -0.00000000
     The local contribution  to forces
     atom    1 type  1   force =     0.89104170    0.00000000    0.00000000
     atom    2 type  1   force =    -0.89097786    0.00000000    0.00000000
     The core correction contribution to forces
     atom    1 type  1   force =     0.00000000    0.00000000    0.00000000
     atom    2 type  1   force =     0.00000000    0.00000000    0.00000000
     The Hubbard contrib.    to forces
     atom    1 type  1   force =     0.00000000    0.00000000    0.00000000
     atom    2 type  1   force =     0.00000000    0.00000000    0.00000000
     The SCF correction term to forces
     atom    1 type  1   force =     0.00022265    0.00000000    0.00000000
     atom    2 type  1   force =     0.00017795    0.00000000    0.00000000

     Total force =     0.016345     Total SCF correction =     0.000285
     Energy error            =      6.2E-06 Ry
     Gradient error          =      1.2E-02 Ry/Bohr

     number of scf cycles    =   5
     number of bfgs steps    =   2

     energy             old  =      -2.3132758301 Ry
     energy             new  =      -2.3132820208 Ry

     CASE: energy            _new < energy            _old

     new trust radius        =       0.0074628386 bohr
     new conv_thr            =            1.0E-10 Ry


ATOMIC_POSITIONS (angstrom)
H             0.0247903703        0.0000000000        0.0000000000
H             0.7752096297        0.0000000000        0.0000000000



     Writing config-only to output data dir ./.save/
     NEW-OLD atomic charge density approx. for the potential

     negative rho (up, down):  9.093E-02 0.000E+00

     total cpu time spent up to now is       24.9 secs

     Self-consistent Calculation

     iteration #  1     ecut=    20.00 Ry     beta= 0.70
     Davidson diagonalization with overlap

---- Real-time Memory Report at c_bands before calling an iterative solver
           307 MiB given to the printing process from OS
             0 MiB allocation reported by mallinfo(arena+hblkhd)
           416 MiB available memory on the node where the printing process lives
------------------
     ethr =  1.00E-06,  avg # of iterations =  3.0

     negative rho (up, down):  9.150E-02 0.000E+00

     total cpu time spent up to now is       25.6 secs

     total energy              =      -2.31320118 Ry
     estimated scf accuracy    <       0.00001751 Ry

     iteration #  2     ecut=    20.00 Ry     beta= 0.70
     Davidson diagonalization with overlap

---- Real-time Memory Report at c_bands before calling an iterative solver
           307 MiB given to the printing process from OS
             0 MiB allocation reported by mallinfo(arena+hblkhd)
           319 MiB available memory on the node where the printing process lives
------------------
     ethr =  8.75E-07,  avg # of iterations =  2.0

     negative rho (up, down):  9.161E-02 0.000E+00

     total cpu time spent up to now is       26.2 secs

     total energy              =      -2.31313397 Ry
     estimated scf accuracy    <       0.00000023 Ry

     iteration #  3     ecut=    20.00 Ry     beta= 0.70
     Davidson diagonalization with overlap

---- Real-time Memory Report at c_bands before calling an iterative solver
           307 MiB given to the printing process from OS
             0 MiB allocation reported by mallinfo(arena+hblkhd)
           309 MiB available memory on the node where the printing process lives
------------------
     ethr =  1.15E-08,  avg # of iterations =  2.0

     negative rho (up, down):  9.161E-02 0.000E+00

     total cpu time spent up to now is       26.8 secs

     total energy              =      -2.31314142 Ry
     estimated scf accuracy    <       0.00000002 Ry

     iteration #  4     ecut=    20.00 Ry     beta= 0.70
     Davidson diagonalization with overlap

---- Real-time Memory Report at c_bands before calling an iterative solver
           307 MiB given to the printing process from OS
             0 MiB allocation reported by mallinfo(arena+hblkhd)
           299 MiB available memory on the node where the printing process lives
------------------
     ethr =  1.13E-09,  avg # of iterations =  3.0

     negative rho (up, down):  9.162E-02 0.000E+00

     total cpu time spent up to now is       27.5 secs

     total energy              =      -2.31313657 Ry
     estimated scf accuracy    <       0.00000001 Ry

     iteration #  5     ecut=    20.00 Ry     beta= 0.70
     Davidson diagonalization with overlap

---- Real-time Memory Report at c_bands before calling an iterative solver
           307 MiB given to the printing process from OS
             0 MiB allocation reported by mallinfo(arena+hblkhd)
           289 MiB available memory on the node where the printing process lives
------------------
     ethr =  6.74E-10,  avg # of iterations =  3.0

     negative rho (up, down):  9.162E-02 0.000E+00

     total cpu time spent up to now is       28.1 secs

     total energy              =      -2.31313803 Ry
     estimated scf accuracy    <          2.9E-09 Ry

     iteration #  6     ecut=    20.00 Ry     beta= 0.70
     Davidson diagonalization with overlap

---- Real-time Memory Report at c_bands before calling an iterative solver
           307 MiB given to the printing process from OS
             0 MiB allocation reported by mallinfo(arena+hblkhd)
           279 MiB available memory on the node where the printing process lives
------------------
     ethr =  1.44E-10,  avg # of iterations =  3.0

     negative rho (up, down):  9.162E-02 0.000E+00

     total cpu time spent up to now is       28.8 secs

     total energy              =      -2.31313330 Ry
     estimated scf accuracy    <          2.9E-09 Ry

     iteration #  7     ecut=    20.00 Ry     beta= 0.70
     Davidson diagonalization with overlap

---- Real-time Memory Report at c_bands before calling an iterative solver
           307 MiB given to the printing process from OS
             0 MiB allocation reported by mallinfo(arena+hblkhd)
           269 MiB available memory on the node where the printing process lives
------------------
     ethr =  1.44E-10,  avg # of iterations =  4.0

     negative rho (up, down):  9.162E-02 0.000E+00

     total cpu time spent up to now is       29.5 secs

     total energy              =      -2.31313538 Ry
     estimated scf accuracy    <          5.1E-09 Ry

     iteration #  8     ecut=    20.00 Ry     beta= 0.70
     Davidson diagonalization with overlap

---- Real-time Memory Report at c_bands before calling an iterative solver
           307 MiB given to the printing process from OS
             0 MiB allocation reported by mallinfo(arena+hblkhd)
           259 MiB available memory on the node where the printing process lives
------------------
     ethr =  1.44E-10,  avg # of iterations =  4.0

     negative rho (up, down):  9.162E-02 0.000E+00

     total cpu time spent up to now is       30.2 secs

     total energy              =      -2.31313371 Ry
     estimated scf accuracy    <          5.1E-10 Ry

     iteration #  9     ecut=    20.00 Ry     beta= 0.70
     Davidson diagonalization with overlap

---- Real-time Memory Report at c_bands before calling an iterative solver
           317 MiB given to the printing process from OS
             0 MiB allocation reported by mallinfo(arena+hblkhd)
           249 MiB available memory on the node where the printing process lives
------------------
     ethr =  2.55E-11,  avg # of iterations =  3.0

     negative rho (up, down):  9.162E-02 0.000E+00

     total cpu time spent up to now is       30.8 secs

     total energy              =      -2.31313037 Ry
     estimated scf accuracy    <          1.2E-09 Ry

     iteration # 10     ecut=    20.00 Ry     beta= 0.70
     Davidson diagonalization with overlap

---- Real-time Memory Report at c_bands before calling an iterative solver
           327 MiB given to the printing process from OS
             0 MiB allocation reported by mallinfo(arena+hblkhd)
           239 MiB available memory on the node where the printing process lives
------------------
     ethr =  2.55E-11,  avg # of iterations =  4.0

     negative rho (up, down):  9.162E-02 0.000E+00

     total cpu time spent up to now is       31.5 secs

     total energy              =      -2.31313046 Ry
     estimated scf accuracy    <          3.8E-09 Ry

     iteration # 11     ecut=    20.00 Ry     beta= 0.70
     Davidson diagonalization with overlap

---- Real-time Memory Report at c_bands before calling an iterative solver
           327 MiB given to the printing process from OS
             0 MiB allocation reported by mallinfo(arena+hblkhd)
           239 MiB available memory on the node where the printing process lives
------------------
     ethr =  2.55E-11,  avg # of iterations =  1.0

     negative rho (up, down):  9.162E-02 0.000E+00

     total cpu time spent up to now is       32.2 secs

     total energy              =      -2.31313203 Ry
     estimated scf accuracy    <          3.9E-09 Ry

     iteration # 12     ecut=    20.00 Ry     beta= 0.70
     Davidson diagonalization with overlap

---- Real-time Memory Report at c_bands before calling an iterative solver
           327 MiB given to the printing process from OS
             0 MiB allocation reported by mallinfo(arena+hblkhd)
           239 MiB available memory on the node where the printing process lives
------------------
     ethr =  2.55E-11,  avg # of iterations =  3.0

     negative rho (up, down):  9.162E-02 0.000E+00

     total cpu time spent up to now is       32.8 secs

     total energy              =      -2.31313748 Ry
     estimated scf accuracy    <          4.0E-09 Ry

     iteration # 13     ecut=    20.00 Ry     beta= 0.70
     Davidson diagonalization with overlap

---- Real-time Memory Report at c_bands before calling an iterative solver
           327 MiB given to the printing process from OS
             0 MiB allocation reported by mallinfo(arena+hblkhd)
           239 MiB available memory on the node where the printing process lives
------------------
     ethr =  2.55E-11,  avg # of iterations =  4.0

     negative rho (up, down):  9.162E-02 0.000E+00

     total cpu time spent up to now is       33.5 secs

     total energy              =      -2.31313371 Ry
     estimated scf accuracy    <          4.0E-09 Ry

     iteration # 14     ecut=    20.00 Ry     beta= 0.70
     Davidson diagonalization with overlap

---- Real-time Memory Report at c_bands before calling an iterative solver
           327 MiB given to the printing process from OS
             0 MiB allocation reported by mallinfo(arena+hblkhd)
           239 MiB available memory on the node where the printing process lives
------------------
     ethr =  2.55E-11,  avg # of iterations =  4.0

     negative rho (up, down):  9.162E-02 0.000E+00

     total cpu time spent up to now is       34.2 secs

     total energy              =      -2.31313862 Ry
     estimated scf accuracy    <          8.3E-09 Ry

     iteration # 15     ecut=    20.00 Ry     beta= 0.70
     Davidson diagonalization with overlap

---- Real-time Memory Report at c_bands before calling an iterative solver
           327 MiB given to the printing process from OS
             0 MiB allocation reported by mallinfo(arena+hblkhd)
           239 MiB available memory on the node where the printing process lives
------------------
     ethr =  2.55E-11,  avg # of iterations =  4.0

     negative rho (up, down):  9.162E-02 0.000E+00

     total cpu time spent up to now is       34.9 secs

     total energy              =      -2.31313130 Ry
     estimated scf accuracy    <          4.2E-09 Ry

     iteration # 16     ecut=    20.00 Ry     beta= 0.70
     Davidson diagonalization with overlap

---- Real-time Memory Report at c_bands before calling an iterative solver
           327 MiB given to the printing process from OS
             0 MiB allocation reported by mallinfo(arena+hblkhd)
           239 MiB available memory on the node where the printing process lives
------------------
     ethr =  2.55E-11,  avg # of iterations =  4.0

     negative rho (up, down):  9.162E-02 0.000E+00

     total cpu time spent up to now is       35.6 secs

     total energy              =      -2.31312797 Ry
     estimated scf accuracy    <          4.3E-09 Ry

     iteration # 17     ecut=    20.00 Ry     beta= 0.70
     Davidson diagonalization with overlap

---- Real-time Memory Report at c_bands before calling an iterative solver
           327 MiB given to the printing process from OS
             0 MiB allocation reported by mallinfo(arena+hblkhd)
           239 MiB available memory on the node where the printing process lives
------------------
     ethr =  2.55E-11,  avg # of iterations =  4.0

     negative rho (up, down):  9.162E-02 0.000E+00

     total cpu time spent up to now is       36.3 secs

     total energy              =      -2.31313194 Ry
     estimated scf accuracy    <       0.00000001 Ry

     iteration # 18     ecut=    20.00 Ry     beta= 0.70
     Davidson diagonalization with overlap

---- Real-time Memory Report at c_bands before calling an iterative solver
           327 MiB given to the printing process from OS
             0 MiB allocation reported by mallinfo(arena+hblkhd)
           239 MiB available memory on the node where the printing process lives
------------------
     ethr =  2.55E-11,  avg # of iterations =  4.0

     negative rho (up, down):  9.162E-02 0.000E+00

     total cpu time spent up to now is       37.1 secs

     total energy              =      -2.31314226 Ry
     estimated scf accuracy    <          3.3E-09 Ry

     iteration # 19     ecut=    20.00 Ry     beta= 0.70
     Davidson diagonalization with overlap

---- Real-time Memory Report at c_bands before calling an iterative solver
           327 MiB given to the printing process from OS
             0 MiB allocation reported by mallinfo(arena+hblkhd)
           239 MiB available memory on the node where the printing process lives
------------------
     ethr =  2.55E-11,  avg # of iterations =  5.0

     negative rho (up, down):  9.162E-02 0.000E+00

     total cpu time spent up to now is       37.8 secs

     total energy              =      -2.31313766 Ry
     estimated scf accuracy    <          5.2E-09 Ry

     iteration # 20     ecut=    20.00 Ry     beta= 0.70
     Davidson diagonalization with overlap

---- Real-time Memory Report at c_bands before calling an iterative solver
           327 MiB given to the printing process from OS
             0 MiB allocation reported by mallinfo(arena+hblkhd)
           239 MiB available memory on the node where the printing process lives
------------------
     ethr =  2.55E-11,  avg # of iterations =  4.0

     negative rho (up, down):  9.162E-02 0.000E+00

     total cpu time spent up to now is       38.5 secs

     total energy              =      -2.31314272 Ry
     estimated scf accuracy    <          2.2E-09 Ry

     iteration # 21     ecut=    20.00 Ry     beta= 0.70
     Davidson diagonalization with overlap

---- Real-time Memory Report at c_bands before calling an iterative solver
           327 MiB given to the printing process from OS
             0 MiB allocation reported by mallinfo(arena+hblkhd)
           239 MiB available memory on the node where the printing process lives
------------------
     ethr =  2.55E-11,  avg # of iterations =  4.0

     negative rho (up, down):  9.162E-02 0.000E+00

     total cpu time spent up to now is       39.2 secs

     total energy              =      -2.31314329 Ry
     estimated scf accuracy    <          7.5E-09 Ry

     iteration # 22     ecut=    20.00 Ry     beta= 0.70
     Davidson diagonalization with overlap

---- Real-time Memory Report at c_bands before calling an iterative solver
           327 MiB given to the printing process from OS
             0 MiB allocation reported by mallinfo(arena+hblkhd)
           239 MiB available memory on the node where the printing process lives
------------------
     ethr =  2.55E-11,  avg # of iterations =  2.0

     negative rho (up, down):  9.162E-02 0.000E+00

     total cpu time spent up to now is       39.8 secs

     total energy              =      -2.31313848 Ry
     estimated scf accuracy    <          8.4E-09 Ry

     iteration # 23     ecut=    20.00 Ry     beta= 0.70
     Davidson diagonalization with overlap

---- Real-time Memory Report at c_bands before calling an iterative solver
           327 MiB given to the printing process from OS
             0 MiB allocation reported by mallinfo(arena+hblkhd)
           239 MiB available memory on the node where the printing process lives
------------------
     ethr =  2.55E-11,  avg # of iterations =  4.0

     negative rho (up, down):  9.162E-02 0.000E+00

     total cpu time spent up to now is       40.5 secs

     total energy              =      -2.31313888 Ry
     estimated scf accuracy    <          1.9E-09 Ry

     iteration # 24     ecut=    20.00 Ry     beta= 0.70
     Davidson diagonalization with overlap

---- Real-time Memory Report at c_bands before calling an iterative solver
           327 MiB given to the printing process from OS
             0 MiB allocation reported by mallinfo(arena+hblkhd)
           239 MiB available memory on the node where the printing process lives
------------------
     ethr =  2.55E-11,  avg # of iterations =  2.0

     negative rho (up, down):  9.162E-02 0.000E+00

     total cpu time spent up to now is       41.2 secs

     total energy              =      -2.31313889 Ry
     estimated scf accuracy    <          2.3E-09 Ry

     iteration # 25     ecut=    20.00 Ry     beta= 0.70
     Davidson diagonalization with overlap

---- Real-time Memory Report at c_bands before calling an iterative solver
           327 MiB given to the printing process from OS
             0 MiB allocation reported by mallinfo(arena+hblkhd)
           239 MiB available memory on the node where the printing process lives
------------------
     ethr =  2.55E-11,  avg # of iterations =  2.0

     negative rho (up, down):  9.162E-02 0.000E+00

     total cpu time spent up to now is       41.9 secs

     total energy              =      -2.31313889 Ry
     estimated scf accuracy    <          2.8E-09 Ry

     iteration # 26     ecut=    20.00 Ry     beta= 0.70
     Davidson diagonalization with overlap

---- Real-time Memory Report at c_bands before calling an iterative solver
           327 MiB given to the printing process from OS
             0 MiB allocation reported by mallinfo(arena+hblkhd)
           239 MiB available memory on the node where the printing process lives
------------------
     ethr =  2.55E-11,  avg # of iterations =  2.0

     negative rho (up, down):  9.162E-02 0.000E+00

     total cpu time spent up to now is       42.5 secs

     total energy              =      -2.31313887 Ry
     estimated scf accuracy    <          2.7E-09 Ry

     iteration # 27     ecut=    20.00 Ry     beta= 0.70
     Davidson diagonalization with overlap

---- Real-time Memory Report at c_bands before calling an iterative solver
           327 MiB given to the printing process from OS
             0 MiB allocation reported by mallinfo(arena+hblkhd)
           239 MiB available memory on the node where the printing process lives
------------------
     ethr =  2.55E-11,  avg # of iterations =  2.0

     negative rho (up, down):  9.160E-02 0.000E+00

     total cpu time spent up to now is       43.2 secs

     total energy              =      -2.31314843 Ry
     estimated scf accuracy    <          2.8E-09 Ry

     iteration # 28     ecut=    20.00 Ry     beta= 0.70
     Davidson diagonalization with overlap

---- Real-time Memory Report at c_bands before calling an iterative solver
           327 MiB given to the printing process from OS
             0 MiB allocation reported by mallinfo(arena+hblkhd)
           239 MiB available memory on the node where the printing process lives
------------------
     ethr =  2.55E-11,  avg # of iterations =  4.0

     negative rho (up, down):  9.162E-02 0.000E+00

     total cpu time spent up to now is       43.9 secs

     total energy              =      -2.31313435 Ry
     estimated scf accuracy    <          2.7E-09 Ry

     iteration # 29     ecut=    20.00 Ry     beta= 0.70
     Davidson diagonalization with overlap

---- Real-time Memory Report at c_bands before calling an iterative solver
           327 MiB given to the printing process from OS
             0 MiB allocation reported by mallinfo(arena+hblkhd)
           239 MiB available memory on the node where the printing process lives
------------------
     ethr =  2.55E-11,  avg # of iterations =  4.0

     negative rho (up, down):  9.162E-02 0.000E+00

     total cpu time spent up to now is       44.6 secs

     total energy              =      -2.31313727 Ry
     estimated scf accuracy    <          3.6E-10 Ry

     iteration # 30     ecut=    20.00 Ry     beta= 0.70
     Davidson diagonalization with overlap

---- Real-time Memory Report at c_bands before calling an iterative solver
           327 MiB given to the printing process from OS
             0 MiB allocation reported by mallinfo(arena+hblkhd)
           239 MiB available memory on the node where the printing process lives
------------------
     ethr =  1.82E-11,  avg # of iterations =  4.0

     negative rho (up, down):  9.161E-02 0.000E+00

     total cpu time spent up to now is       45.2 secs

     total energy              =      -2.31314227 Ry
     estimated scf accuracy    <          5.4E-09 Ry

     iteration # 31     ecut=    20.00 Ry     beta= 0.70
     Davidson diagonalization with overlap

---- Real-time Memory Report at c_bands before calling an iterative solver
           327 MiB given to the printing process from OS
             0 MiB allocation reported by mallinfo(arena+hblkhd)
           239 MiB available memory on the node where the printing process lives
------------------
     ethr =  1.82E-11,  avg # of iterations =  4.0

     negative rho (up, down):  9.162E-02 0.000E+00

     total cpu time spent up to now is       45.9 secs

     total energy              =      -2.31314037 Ry
     estimated scf accuracy    <          4.1E-09 Ry

     iteration # 32     ecut=    20.00 Ry     beta= 0.70
     Davidson diagonalization with overlap

---- Real-time Memory Report at c_bands before calling an iterative solver
           327 MiB given to the printing process from OS
             0 MiB allocation reported by mallinfo(arena+hblkhd)
           239 MiB available memory on the node where the printing process lives
------------------
     ethr =  1.82E-11,  avg # of iterations =  4.0

     negative rho (up, down):  9.162E-02 0.000E+00

     total cpu time spent up to now is       46.6 secs

     total energy              =      -2.31313247 Ry
     estimated scf accuracy    <          2.0E-09 Ry

     iteration # 33     ecut=    20.00 Ry     beta= 0.70
     Davidson diagonalization with overlap

---- Real-time Memory Report at c_bands before calling an iterative solver
           327 MiB given to the printing process from OS
             0 MiB allocation reported by mallinfo(arena+hblkhd)
           239 MiB available memory on the node where the printing process lives
------------------
     ethr =  1.82E-11,  avg # of iterations =  5.0

     negative rho (up, down):  9.162E-02 0.000E+00

     total cpu time spent up to now is       47.4 secs

     total energy              =      -2.31313456 Ry
     estimated scf accuracy    <          2.7E-09 Ry

     iteration # 34     ecut=    20.00 Ry     beta= 0.70
     Davidson diagonalization with overlap

---- Real-time Memory Report at c_bands before calling an iterative solver
           327 MiB given to the printing process from OS
             0 MiB allocation reported by mallinfo(arena+hblkhd)
           239 MiB available memory on the node where the printing process lives
------------------
     ethr =  1.82E-11,  avg # of iterations =  5.0

     negative rho (up, down):  9.162E-02 0.000E+00

     total cpu time spent up to now is       48.2 secs

     total energy              =      -2.31313620 Ry
     estimated scf accuracy    <          7.7E-10 Ry

     iteration # 35     ecut=    20.00 Ry     beta= 0.70
     Davidson diagonalization with overlap

---- Real-time Memory Report at c_bands before calling an iterative solver
           327 MiB given to the printing process from OS
             0 MiB allocation reported by mallinfo(arena+hblkhd)
           239 MiB available memory on the node where the printing process lives
------------------
     ethr =  1.82E-11,  avg # of iterations =  4.0

     negative rho (up, down):  9.162E-02 0.000E+00

     total cpu time spent up to now is       48.9 secs

     total energy              =      -2.31313760 Ry
     estimated scf accuracy    <          2.6E-10 Ry

     iteration # 36     ecut=    20.00 Ry     beta= 0.70
     Davidson diagonalization with overlap

---- Real-time Memory Report at c_bands before calling an iterative solver
           327 MiB given to the printing process from OS
             0 MiB allocation reported by mallinfo(arena+hblkhd)
           239 MiB available memory on the node where the printing process lives
------------------
     ethr =  1.28E-11,  avg # of iterations =  4.0

     negative rho (up, down):  9.162E-02 0.000E+00

     total cpu time spent up to now is       49.6 secs

     total energy              =      -2.31314519 Ry
     estimated scf accuracy    <          1.2E-09 Ry

     iteration # 37     ecut=    20.00 Ry     beta= 0.70
     Davidson diagonalization with overlap

---- Real-time Memory Report at c_bands before calling an iterative solver
           327 MiB given to the printing process from OS
             0 MiB allocation reported by mallinfo(arena+hblkhd)
           239 MiB available memory on the node where the printing process lives
------------------
     ethr =  1.28E-11,  avg # of iterations =  4.0

     negative rho (up, down):  9.162E-02 0.000E+00

     total cpu time spent up to now is       50.3 secs

     total energy              =      -2.31314320 Ry
     estimated scf accuracy    <       0.00000001 Ry

     iteration # 38     ecut=    20.00 Ry     beta= 0.70
     Davidson diagonalization with overlap

---- Real-time Memory Report at c_bands before calling an iterative solver
           327 MiB given to the printing process from OS
             0 MiB allocation reported by mallinfo(arena+hblkhd)
           239 MiB available memory on the node where the printing process lives
------------------
     ethr =  1.28E-11,  avg # of iterations =  4.0

     negative rho (up, down):  9.161E-02 0.000E+00

     total cpu time spent up to now is       51.0 secs

     total energy              =      -2.31314070 Ry
     estimated scf accuracy    <          7.0E-09 Ry

     iteration # 39     ecut=    20.00 Ry     beta= 0.70
     Davidson diagonalization with overlap

---- Real-time Memory Report at c_bands before calling an iterative solver
           327 MiB given to the printing process from OS
             0 MiB allocation reported by mallinfo(arena+hblkhd)
           239 MiB available memory on the node where the printing process lives
------------------
     ethr =  1.28E-11,  avg # of iterations =  4.0

     negative rho (up, down):  9.162E-02 0.000E+00

     total cpu time spent up to now is       51.7 secs

     total energy              =      -2.31313703 Ry
     estimated scf accuracy    <          5.6E-09 Ry

     iteration # 40     ecut=    20.00 Ry     beta= 0.70
     Davidson diagonalization with overlap

---- Real-time Memory Report at c_bands before calling an iterative solver
           327 MiB given to the printing process from OS
             0 MiB allocation reported by mallinfo(arena+hblkhd)
           239 MiB available memory on the node where the printing process lives
------------------
     ethr =  1.28E-11,  avg # of iterations =  4.0

     negative rho (up, down):  9.162E-02 0.000E+00

     total cpu time spent up to now is       52.4 secs

     total energy              =      -2.31313786 Ry
     estimated scf accuracy    <          8.8E-10 Ry

     iteration # 41     ecut=    20.00 Ry     beta= 0.70
     Davidson diagonalization with overlap

---- Real-time Memory Report at c_bands before calling an iterative solver
           327 MiB given to the printing process from OS
             0 MiB allocation reported by mallinfo(arena+hblkhd)
           239 MiB available memory on the node where the printing process lives
------------------
     ethr =  1.28E-11,  avg # of iterations =  2.0

     negative rho (up, down):  9.162E-02 0.000E+00

     total cpu time spent up to now is       53.0 secs

     total energy              =      -2.31313339 Ry
     estimated scf accuracy    <          1.4E-09 Ry

     iteration # 42     ecut=    20.00 Ry     beta= 0.70
     Davidson diagonalization with overlap

---- Real-time Memory Report at c_bands before calling an iterative solver
           327 MiB given to the printing process from OS
             0 MiB allocation reported by mallinfo(arena+hblkhd)
           239 MiB available memory on the node where the printing process lives
------------------
     ethr =  1.28E-11,  avg # of iterations =  5.0

     negative rho (up, down):  9.162E-02 0.000E+00

     total cpu time spent up to now is       53.7 secs

     total energy              =      -2.31313487 Ry
     estimated scf accuracy    <          1.5E-09 Ry

     iteration # 43     ecut=    20.00 Ry     beta= 0.70
     Davidson diagonalization with overlap

---- Real-time Memory Report at c_bands before calling an iterative solver
           327 MiB given to the printing process from OS
             0 MiB allocation reported by mallinfo(arena+hblkhd)
           239 MiB available memory on the node where the printing process lives
------------------
     ethr =  1.28E-11,  avg # of iterations =  5.0

     negative rho (up, down):  9.162E-02 0.000E+00

     total cpu time spent up to now is       54.5 secs

     total energy              =      -2.31313690 Ry
     estimated scf accuracy    <          3.5E-09 Ry

     iteration # 44     ecut=    20.00 Ry     beta= 0.70
     Davidson diagonalization with overlap

---- Real-time Memory Report at c_bands before calling an iterative solver
           327 MiB given to the printing process from OS
             0 MiB allocation reported by mallinfo(arena+hblkhd)
           239 MiB available memory on the node where the printing process lives
------------------
     ethr =  1.28E-11,  avg # of iterations =  5.0

     negative rho (up, down):  9.162E-02 0.000E+00

     total cpu time spent up to now is       55.2 secs

     total energy              =      -2.31313514 Ry
     estimated scf accuracy    <          1.3E-09 Ry

     iteration # 45     ecut=    20.00 Ry     beta= 0.70
     Davidson diagonalization with overlap

---- Real-time Memory Report at c_bands before calling an iterative solver
           327 MiB given to the printing process from OS
             0 MiB allocation reported by mallinfo(arena+hblkhd)
           239 MiB available memory on the node where the printing process lives
------------------
     ethr =  1.28E-11,  avg # of iterations =  4.0

     negative rho (up, down):  9.162E-02 0.000E+00

     total cpu time spent up to now is       55.9 secs

     total energy              =      -2.31313155 Ry
     estimated scf accuracy    <          4.3E-09 Ry

     iteration # 46     ecut=    20.00 Ry     beta= 0.70
     Davidson diagonalization with overlap

---- Real-time Memory Report at c_bands before calling an iterative solver
           327 MiB given to the printing process from OS
             0 MiB allocation reported by mallinfo(arena+hblkhd)
           239 MiB available memory on the node where the printing process lives
------------------
     ethr =  1.28E-11,  avg # of iterations =  5.0

     negative rho (up, down):  9.162E-02 0.000E+00

     total cpu time spent up to now is       56.6 secs

     total energy              =      -2.31314273 Ry
     estimated scf accuracy    <          3.3E-09 Ry

     iteration # 47     ecut=    20.00 Ry     beta= 0.70
     Davidson diagonalization with overlap

---- Real-time Memory Report at c_bands before calling an iterative solver
           327 MiB given to the printing process from OS
             0 MiB allocation reported by mallinfo(arena+hblkhd)
           239 MiB available memory on the node where the printing process lives
------------------
     ethr =  1.28E-11,  avg # of iterations =  5.0

     negative rho (up, down):  9.162E-02 0.000E+00

     total cpu time spent up to now is       57.3 secs

     total energy              =      -2.31314349 Ry
     estimated scf accuracy    <          8.9E-09 Ry

     iteration # 48     ecut=    20.00 Ry     beta= 0.70
     Davidson diagonalization with overlap

---- Real-time Memory Report at c_bands before calling an iterative solver
           327 MiB given to the printing process from OS
             0 MiB allocation reported by mallinfo(arena+hblkhd)
           239 MiB available memory on the node where the printing process lives
------------------
     ethr =  1.28E-11,  avg # of iterations =  1.0

     negative rho (up, down):  9.162E-02 0.000E+00

     total cpu time spent up to now is       58.0 secs

     total energy              =      -2.31313333 Ry
     estimated scf accuracy    <          8.7E-09 Ry

     iteration # 49     ecut=    20.00 Ry     beta= 0.70
     Davidson diagonalization with overlap

---- Real-time Memory Report at c_bands before calling an iterative solver
           327 MiB given to the printing process from OS
             0 MiB allocation reported by mallinfo(arena+hblkhd)
           239 MiB available memory on the node where the printing process lives
------------------
     ethr =  1.28E-11,  avg # of iterations =  5.0

     negative rho (up, down):  9.162E-02 0.000E+00

     total cpu time spent up to now is       58.7 secs

     total energy              =      -2.31313956 Ry
     estimated scf accuracy    <          1.3E-09 Ry

     iteration # 50     ecut=    20.00 Ry     beta= 0.70
     Davidson diagonalization with overlap

---- Real-time Memory Report at c_bands before calling an iterative solver
           327 MiB given to the printing process from OS
             0 MiB allocation reported by mallinfo(arena+hblkhd)
           239 MiB available memory on the node where the printing process lives
------------------
     ethr =  1.28E-11,  avg # of iterations =  4.0

     negative rho (up, down):  9.162E-02 0.000E+00

     total cpu time spent up to now is       59.4 secs

     total energy              =      -2.31314003 Ry
     estimated scf accuracy    <          7.4E-10 Ry

     iteration # 51     ecut=    20.00 Ry     beta= 0.70
     Davidson diagonalization with overlap

---- Real-time Memory Report at c_bands before calling an iterative solver
           327 MiB given to the printing process from OS
             0 MiB allocation reported by mallinfo(arena+hblkhd)
           239 MiB available memory on the node where the printing process lives
------------------
     ethr =  1.28E-11,  avg # of iterations =  2.0

     negative rho (up, down):  9.162E-02 0.000E+00

     total cpu time spent up to now is       60.0 secs

     total energy              =      -2.31314006 Ry
     estimated scf accuracy    <          1.1E-09 Ry

     iteration # 52     ecut=    20.00 Ry     beta= 0.70
     Davidson diagonalization with overlap

---- Real-time Memory Report at c_bands before calling an iterative solver
           327 MiB given to the printing process from OS
             0 MiB allocation reported by mallinfo(arena+hblkhd)
[...]
------------------
     ethr =  1.28E-11,  avg # of iterations =  4.0

     negative rho (up, down):  9.161E-02 0.000E+00

     total cpu time spent up to now is       77.5 secs

     total energy              =      -2.31314987 Ry
     estimated scf accuracy    <       0.00000003 Ry

     iteration # 77     ecut=    20.00 Ry     beta= 0.70
     Davidson diagonalization with overlap

---- Real-time Memory Report at c_bands before calling an iterative solver
           327 MiB given to the printing process from OS
             0 MiB allocation reported by mallinfo(arena+hblkhd)
           239 MiB available memory on the node where the printing process lives
------------------
     ethr =  1.28E-11,  avg # of iterations =  4.0

     negative rho (up, down):  9.164E-02 0.000E+00

     total cpu time spent up to now is       78.2 secs

     total energy              =      -2.31311953 Ry
     estimated scf accuracy    <       0.00000002 Ry

     iteration # 78     ecut=    20.00 Ry     beta= 0.70
     Davidson diagonalization with overlap

---- Real-time Memory Report at c_bands before calling an iterative solver
           327 MiB given to the printing process from OS
             0 MiB allocation reported by mallinfo(arena+hblkhd)
           239 MiB available memory on the node where the printing process lives
------------------
     ethr =  1.28E-11,  avg # of iterations =  5.0

     negative rho (up, down):  9.163E-02 0.000E+00

     total cpu time spent up to now is       78.9 secs

     total energy              =      -2.31312117 Ry
     estimated scf accuracy    <       0.00000003 Ry

     iteration # 79     ecut=    20.00 Ry     beta= 0.70
     Davidson diagonalization with overlap

---- Real-time Memory Report at c_bands before calling an iterative solver
           327 MiB given to the printing process from OS
             0 MiB allocation reported by mallinfo(arena+hblkhd)
           239 MiB available memory on the node where the printing process lives
------------------
     ethr =  1.28E-11,  avg # of iterations =  4.0

     negative rho (up, down):  9.162E-02 0.000E+00

     total cpu time spent up to now is       79.6 secs

     total energy              =      -2.31312862 Ry
     estimated scf accuracy    <       0.00000003 Ry

     iteration # 80     ecut=    20.00 Ry     beta= 0.70
     Davidson diagonalization with overlap

---- Real-time Memory Report at c_bands before calling an iterative solver
           327 MiB given to the printing process from OS
             0 MiB allocation reported by mallinfo(arena+hblkhd)
           239 MiB available memory on the node where the printing process lives
------------------
     ethr =  1.28E-11,  avg # of iterations =  4.0

     negative rho (up, down):  9.162E-02 0.000E+00

     total cpu time spent up to now is       80.3 secs

     total energy              =      -2.31313286 Ry
     estimated scf accuracy    <          5.3E-09 Ry

     iteration # 81     ecut=    20.00 Ry     beta= 0.70
     Davidson diagonalization with overlap

---- Real-time Memory Report at c_bands before calling an iterative solver
           327 MiB given to the printing process from OS
             0 MiB allocation reported by mallinfo(arena+hblkhd)
           239 MiB available memory on the node where the printing process lives
------------------
     ethr =  1.28E-11,  avg # of iterations =  4.0

     negative rho (up, down):  9.161E-02 0.000E+00

     total cpu time spent up to now is       81.0 secs

     total energy              =      -2.31314566 Ry
     estimated scf accuracy    <          1.5E-09 Ry

     iteration # 82     ecut=    20.00 Ry     beta= 0.70
     Davidson diagonalization with overlap

---- Real-time Memory Report at c_bands before calling an iterative solver
           327 MiB given to the printing process from OS
             0 MiB allocation reported by mallinfo(arena+hblkhd)
           239 MiB available memory on the node where the printing process lives
------------------
     ethr =  1.28E-11,  avg # of iterations =  5.0

     negative rho (up, down):  9.162E-02 0.000E+00

     total cpu time spent up to now is       81.8 secs

     total energy              =      -2.31313056 Ry
     estimated scf accuracy    <       0.00000001 Ry

     iteration # 83     ecut=    20.00 Ry     beta= 0.70
     Davidson diagonalization with overlap

---- Real-time Memory Report at c_bands before calling an iterative solver
           327 MiB given to the printing process from OS
             0 MiB allocation reported by mallinfo(arena+hblkhd)
           239 MiB available memory on the node where the printing process lives
------------------
     ethr =  1.28E-11,  avg # of iterations =  5.0

     negative rho (up, down):  9.162E-02 0.000E+00

     total cpu time spent up to now is       82.5 secs

     total energy              =      -2.31313087 Ry
     estimated scf accuracy    <          9.1E-09 Ry

     iteration # 84     ecut=    20.00 Ry     beta= 0.70
     Davidson diagonalization with overlap

---- Real-time Memory Report at c_bands before calling an iterative solver
           327 MiB given to the printing process from OS
             0 MiB allocation reported by mallinfo(arena+hblkhd)
           239 MiB available memory on the node where the printing process lives
------------------
     ethr =  1.28E-11,  avg # of iterations =  4.0

     negative rho (up, down):  9.161E-02 0.000E+00

     total cpu time spent up to now is       83.2 secs

     total energy              =      -2.31314596 Ry
     estimated scf accuracy    <          2.1E-09 Ry

     iteration # 85     ecut=    20.00 Ry     beta= 0.70
     Davidson diagonalization with overlap

---- Real-time Memory Report at c_bands before calling an iterative solver
           327 MiB given to the printing process from OS
             0 MiB allocation reported by mallinfo(arena+hblkhd)
           239 MiB available memory on the node where the printing process lives
------------------
     ethr =  1.28E-11,  avg # of iterations =  5.0

     negative rho (up, down):  9.162E-02 0.000E+00

     total cpu time spent up to now is       83.9 secs

     total energy              =      -2.31313718 Ry
     estimated scf accuracy    <       0.00000002 Ry

     iteration # 86     ecut=    20.00 Ry     beta= 0.70
     Davidson diagonalization with overlap

---- Real-time Memory Report at c_bands before calling an iterative solver
           327 MiB given to the printing process from OS
             0 MiB allocation reported by mallinfo(arena+hblkhd)
           239 MiB available memory on the node where the printing process lives
------------------
     ethr =  1.28E-11,  avg # of iterations =  4.0

     negative rho (up, down):  9.161E-02 0.000E+00

     total cpu time spent up to now is       84.6 secs

     total energy              =      -2.31314380 Ry
     estimated scf accuracy    <          1.0E-09 Ry

     iteration # 87     ecut=    20.00 Ry     beta= 0.70
     Davidson diagonalization with overlap

---- Real-time Memory Report at c_bands before calling an iterative solver
           327 MiB given to the printing process from OS
             0 MiB allocation reported by mallinfo(arena+hblkhd)
           239 MiB available memory on the node where the printing process lives
------------------
     ethr =  1.28E-11,  avg # of iterations =  4.0

     negative rho (up, down):  9.162E-02 0.000E+00

     total cpu time spent up to now is       85.3 secs

     total energy              =      -2.31313972 Ry
     estimated scf accuracy    <       0.00000001 Ry

     iteration # 88     ecut=    20.00 Ry     beta= 0.70
     Davidson diagonalization with overlap

---- Real-time Memory Report at c_bands before calling an iterative solver
           327 MiB given to the printing process from OS
             0 MiB allocation reported by mallinfo(arena+hblkhd)
           239 MiB available memory on the node where the printing process lives
------------------
     ethr =  1.28E-11,  avg # of iterations =  4.0

     negative rho (up, down):  9.162E-02 0.000E+00

     total cpu time spent up to now is       86.0 secs

     total energy              =      -2.31313592 Ry
     estimated scf accuracy    <          1.2E-09 Ry

     iteration # 89     ecut=    20.00 Ry     beta= 0.70
     Davidson diagonalization with overlap

---- Real-time Memory Report at c_bands before calling an iterative solver
           327 MiB given to the printing process from OS
             0 MiB allocation reported by mallinfo(arena+hblkhd)
           239 MiB available memory on the node where the printing process lives
------------------
     ethr =  1.28E-11,  avg # of iterations =  4.0

     negative rho (up, down):  9.163E-02 0.000E+00

     total cpu time spent up to now is       86.7 secs

     total energy              =      -2.31312588 Ry
     estimated scf accuracy    <          5.3E-10 Ry

     iteration # 90     ecut=    20.00 Ry     beta= 0.70
     Davidson diagonalization with overlap

---- Real-time Memory Report at c_bands before calling an iterative solver
           327 MiB given to the printing process from OS
             0 MiB allocation reported by mallinfo(arena+hblkhd)
           239 MiB available memory on the node where the printing process lives
------------------
     ethr =  1.28E-11,  avg # of iterations =  4.0

     negative rho (up, down):  9.162E-02 0.000E+00

     total cpu time spent up to now is       87.4 secs

     total energy              =      -2.31313739 Ry
     estimated scf accuracy    <       0.00000001 Ry

     iteration # 91     ecut=    20.00 Ry     beta= 0.70
     Davidson diagonalization with overlap

---- Real-time Memory Report at c_bands before calling an iterative solver
           327 MiB given to the printing process from OS
             0 MiB allocation reported by mallinfo(arena+hblkhd)
           239 MiB available memory on the node where the printing process lives
------------------
     ethr =  1.28E-11,  avg # of iterations =  5.0

     negative rho (up, down):  9.162E-02 0.000E+00

     total cpu time spent up to now is       88.1 secs

     total energy              =      -2.31313261 Ry
     estimated scf accuracy    <          9.9E-10 Ry

     iteration # 92     ecut=    20.00 Ry     beta= 0.70
     Davidson diagonalization with overlap

---- Real-time Memory Report at c_bands before calling an iterative solver
           327 MiB given to the printing process from OS
             0 MiB allocation reported by mallinfo(arena+hblkhd)
           239 MiB available memory on the node where the printing process lives
------------------
     ethr =  1.28E-11,  avg # of iterations =  4.0

     negative rho (up, down):  9.162E-02 0.000E+00

     total cpu time spent up to now is       88.8 secs

     total energy              =      -2.31313291 Ry
     estimated scf accuracy    <          1.5E-09 Ry

     iteration # 93     ecut=    20.00 Ry     beta= 0.70
     Davidson diagonalization with overlap

---- Real-time Memory Report at c_bands before calling an iterative solver
           327 MiB given to the printing process from OS
             0 MiB allocation reported by mallinfo(arena+hblkhd)
           239 MiB available memory on the node where the printing process lives
------------------
     ethr =  1.28E-11,  avg # of iterations =  2.0

     negative rho (up, down):  9.162E-02 0.000E+00

     total cpu time spent up to now is       89.5 secs

     total energy              =      -2.31313281 Ry
     estimated scf accuracy    <          1.5E-09 Ry

     iteration # 94     ecut=    20.00 Ry     beta= 0.70
     Davidson diagonalization with overlap

---- Real-time Memory Report at c_bands before calling an iterative solver
           327 MiB given to the printing process from OS
             0 MiB allocation reported by mallinfo(arena+hblkhd)
           239 MiB available memory on the node where the printing process lives
------------------
     ethr =  1.28E-11,  avg # of iterations =  2.0

     negative rho (up, down):  9.162E-02 0.000E+00

     total cpu time spent up to now is       90.2 secs

     total energy              =      -2.31313623 Ry
     estimated scf accuracy    <          1.6E-09 Ry

     iteration # 95     ecut=    20.00 Ry     beta= 0.70
     Davidson diagonalization with overlap

---- Real-time Memory Report at c_bands before calling an iterative solver
           327 MiB given to the printing process from OS
             0 MiB allocation reported by mallinfo(arena+hblkhd)
           239 MiB available memory on the node where the printing process lives
------------------
     ethr =  1.28E-11,  avg # of iterations =  4.0

     negative rho (up, down):  9.162E-02 0.000E+00

     total cpu time spent up to now is       90.8 secs

     total energy              =      -2.31313963 Ry
     estimated scf accuracy    <          5.8E-10 Ry

     iteration # 96     ecut=    20.00 Ry     beta= 0.70
     Davidson diagonalization with overlap

---- Real-time Memory Report at c_bands before calling an iterative solver
           327 MiB given to the printing process from OS
             0 MiB allocation reported by mallinfo(arena+hblkhd)
           239 MiB available memory on the node where the printing process lives
------------------
     ethr =  1.28E-11,  avg # of iterations =  4.0

     negative rho (up, down):  9.170E-02 0.000E+00

     total cpu time spent up to now is       91.5 secs

     total energy              =      -2.31309286 Ry
     estimated scf accuracy    <          7.5E-10 Ry

     iteration # 97     ecut=    20.00 Ry     beta= 0.70
     Davidson diagonalization with overlap

---- Real-time Memory Report at c_bands before calling an iterative solver
           327 MiB given to the printing process from OS
             0 MiB allocation reported by mallinfo(arena+hblkhd)
           239 MiB available memory on the node where the printing process lives
------------------
     ethr =  1.28E-11,  avg # of iterations =  5.0

     negative rho (up, down):  9.159E-02 0.000E+00

     total cpu time spent up to now is       92.3 secs

     total energy              =      -2.31316652 Ry
     estimated scf accuracy    <       0.00000014 Ry

     iteration # 98     ecut=    20.00 Ry     beta= 0.70
     Davidson diagonalization with overlap

---- Real-time Memory Report at c_bands before calling an iterative solver
           327 MiB given to the printing process from OS
             0 MiB allocation reported by mallinfo(arena+hblkhd)
           239 MiB available memory on the node where the printing process lives
------------------
     ethr =  1.28E-11,  avg # of iterations =  5.0

     negative rho (up, down):  9.161E-02 0.000E+00

     total cpu time spent up to now is       93.0 secs

     total energy              =      -2.31314498 Ry
     estimated scf accuracy    <       0.00000008 Ry

     iteration # 99     ecut=    20.00 Ry     beta= 0.70
     Davidson diagonalization with overlap

---- Real-time Memory Report at c_bands before calling an iterative solver
           327 MiB given to the printing process from OS
             0 MiB allocation reported by mallinfo(arena+hblkhd)
           239 MiB available memory on the node where the printing process lives
------------------
     ethr =  1.28E-11,  avg # of iterations =  4.0

     negative rho (up, down):  9.162E-02 0.000E+00

     total cpu time spent up to now is       93.7 secs

     total energy              =      -2.31312187 Ry
     estimated scf accuracy    <       0.00000002 Ry

     iteration #100     ecut=    20.00 Ry     beta= 0.70
     Davidson diagonalization with overlap

---- Real-time Memory Report at c_bands before calling an iterative solver
           327 MiB given to the printing process from OS
             0 MiB allocation reported by mallinfo(arena+hblkhd)
           239 MiB available memory on the node where the printing process lives
------------------
     ethr =  1.28E-11,  avg # of iterations =  5.0

     negative rho (up, down):  9.161E-02 0.000E+00

     total cpu time spent up to now is       94.5 secs

     total energy              =      -2.31314376 Ry
     estimated scf accuracy    <       0.00000002 Ry

     End of self-consistent calculation

     convergence NOT achieved after 100 iterations: stopping

     Writing config to output data dir ./.save/
     Message from routine punch:
     wavefunctions written to file

     init_run     :      0.59s CPU      0.62s WALL (       1 calls)
     electrons    :     90.53s CPU     90.78s WALL (       6 calls)
     update_pot   :      2.04s CPU      2.09s WALL (       5 calls)
     forces       :      0.74s CPU      0.75s WALL (       5 calls)

     Called by init_run:
     wfcinit      :      0.05s CPU      0.05s WALL (       1 calls)
     wfcinit:atom :      0.00s CPU      0.00s WALL (       1 calls)
     wfcinit:wfcr :      0.05s CPU      0.05s WALL (       1 calls)
     potinit      :      0.36s CPU      0.38s WALL (       1 calls)
     hinit0       :      0.03s CPU      0.03s WALL (       1 calls)

     Called by electrons:
     c_bands      :     21.43s CPU     21.47s WALL (     131 calls)
     sum_band     :     10.28s CPU     10.30s WALL (     131 calls)
     v_of_rho     :     47.07s CPU     47.18s WALL (     137 calls)
     v_h          :      2.70s CPU      2.71s WALL (     137 calls)
     v_xc         :     44.37s CPU     44.47s WALL (     137 calls)
     newd         :      3.38s CPU      3.38s WALL (     137 calls)
     mix_rho      :      9.50s CPU      9.57s WALL (     131 calls)

     Called by c_bands:
     init_us_2    :      0.28s CPU      0.29s WALL (     263 calls)
     init_us_2:cp :      0.28s CPU      0.29s WALL (     263 calls)
     cegterg      :     21.24s CPU     21.27s WALL (     131 calls)

     Called by sum_band:
     sum_band:wei :      0.00s CPU      0.00s WALL (     131 calls)
     sum_band:loo :      3.14s CPU      3.14s WALL (     131 calls)
     sum_band:buf :      0.00s CPU      0.00s WALL (     131 calls)
     sum_band:ini :      0.15s CPU      0.15s WALL (     131 calls)
     sum_band:cal :      0.04s CPU      0.04s WALL (     131 calls)
     sum_band:bec :      0.00s CPU      0.00s WALL (     131 calls)
     addusdens    :      0.87s CPU      0.88s WALL (     131 calls)
     addusd:skk   :      0.25s CPU      0.26s WALL (     131 calls)
     addusd:dgemm :      0.18s CPU      0.19s WALL (     131 calls)
     addusd:qvan2 :      0.23s CPU      0.24s WALL (     131 calls)

     Called by *egterg:
     cdiaghg      :      0.01s CPU      0.01s WALL (     606 calls)
     cegterg:over :      0.26s CPU      0.26s WALL (     480 calls)
     cegterg:upda :      0.20s CPU      0.20s WALL (     480 calls)
     cegterg:last :      0.41s CPU      0.41s WALL (     354 calls)
     h_psi        :     19.99s CPU     20.02s WALL (     612 calls)
     s_psi        :      0.10s CPU      0.10s WALL (     612 calls)
     g_psi        :      0.09s CPU      0.09s WALL (     480 calls)

     Called by h_psi:
     h_psi:calbec :      0.14s CPU      0.14s WALL (     612 calls)
     vloc_psi     :     19.67s CPU     19.70s WALL (     612 calls)
     add_vuspsi   :      0.11s CPU      0.11s WALL (     612 calls)

     General routines
     calbec       :      0.18s CPU      0.18s WALL (     763 calls)
     fft          :     23.54s CPU     23.55s WALL (    1522 calls)
     ffts         :      2.09s CPU      2.10s WALL (     131 calls)
     fftw         :     20.21s CPU     20.24s WALL (    2048 calls)
     davcio       :      0.00s CPU      0.02s WALL (      19 calls)


     PWSCF        :   1m34.20s CPU   1m34.56s WALL


   This run was terminated on:   3:24: 5  28Feb2022            

=------------------------------------------------------------------------------=
   JOB DONE.
=------------------------------------------------------------------------------=
