
     Program PWSCF v.7.0 starts on 28Feb2022 at  2:58: 5 

     This program is part of the open-source Quantum ESPRESSO suite
     for quantum simulation of materials; please cite
         "P. Giannozzi et al., J. Phys.:Condens. Matter 21 395502 (2009);
         "P. Giannozzi et al., J. Phys.:Condens. Matter 29 465901 (2017);
         "P. Giannozzi et al., J. Chem. Phys. 152 154105 (2020);
          URL http://www.quantum-espresso.org", 
     in publications or presentations arising from this work. More details at
     http://www.quantum-espresso.org/quote

     Serial version
     560 MiB available memory on the printing compute node when the environment starts

     Waiting for input...
     Reading input from standard input

     Current dimensions of program PWSCF are:
     Max number of different atomic species (ntypx) = 10
     Max number of k-points (npk) =  40000
     Max angular momentum in pseudopotentials (lmaxx) =  4

     File ./.update deleted, as requested

     File ./.bfgs deleted, as requested

    ============================================================
    |  pseudopotential report for atomic species:  1           |
    |        pseudo potential version   7   3   2              |
    ------------------------------------------------------------
    |  hydrogen            PBE                  exchange-corr  |
    |  z =   1.    zv( 1) =   1.    exfact =   5.00000         |
    |  ifpcor =  0           atomic energy =  -0.91772 Ry      |
    |  index    orbital      occupation    energy              |
    |    1        100           1.00       -0.48               |
    |  rinner =  0.5000                                        |
    |    new generation scheme:                                |
    |    nbeta =  1     kkbeta =  271     rcloc =    0.6000    |
    |    ibeta    l     epsilon   rcut                         |
    |      1       0      -0.48   0.80                         |
    ============================================================

     IMPORTANT: XC functional enforced from input :
     Exchange-correlation= BLYP
                           (   1   3   1   3   0   0   0)
     Any further DFT definition will be discarded
     Please, verify this is what you really want


     G-vector sticks info
     --------------------
     sticks:   dense  smooth     PW     G-vecs:    dense   smooth      PW
     Sum        2869    2869    793               115313   115313   17071

     Using Slab Decomposition



     bravais-lattice index     =            1
     lattice parameter (alat)  =      30.0000  a.u.
     unit-cell volume          =   27000.0000 (a.u.)^3
     number of atoms/cell      =            2
     number of atomic types    =            1
     number of electrons       =         2.00
     number of Kohn-Sham states=            2
     kinetic-energy cutoff     =      10.0000  Ry
     charge density cutoff     =      40.0000  Ry
     scf convergence threshold =      1.0E-08
     mixing beta               =       0.7000
     number of iterations used =            8  plain     mixing
     energy convergence thresh.=      1.0E-04
     force convergence thresh. =      1.0E-03
     Exchange-correlation= BLYP
                           (   1   3   1   3   0   0   0)
     nstep                     =           50


     celldm(1)=  30.000000  celldm(2)=   0.000000  celldm(3)=   0.000000
     celldm(4)=   0.000000  celldm(5)=   0.000000  celldm(6)=   0.000000

     crystal axes: (cart. coord. in units of alat)
               a(1) = (   1.000000   0.000000   0.000000 )  
               a(2) = (   0.000000   1.000000   0.000000 )  
               a(3) = (   0.000000   0.000000   1.000000 )  

     reciprocal axes: (cart. coord. in units 2 pi/alat)
               b(1) = (  1.000000  0.000000  0.000000 )  
               b(2) = (  0.000000  1.000000  0.000000 )  
               b(3) = (  0.000000  0.000000  1.000000 )  


     PseudoPot. # 1 for hy read from file:
     /root/q-e/pseudo/H_US.van
     MD5 check sum: a9a9bfe98ff56cf4de197d71fc46bb44
     Pseudo is Ultrasoft, Zval =  1.0
     Generated by Vanderbilt code, v. 7.3.2
     Using radial grid of  399 points,  1 beta functions with: 
                l(1) =   0
     Q(r) pseudized with  8 coefficients,  rinner =    0.500

     atomic species   valence    mass     pseudopotential
        H              1.00     1.00784     hy( 1.00)

      8 Sym. Ops. (no inversion) found


                                    s                        frac. trans.

      isym =  1     identity                                     

 cryst.   s( 1) = (     1          0          0      )
                  (     0          1          0      )
                  (     0          0          1      )

 cart.    s( 1) = (  1.0000000  0.0000000  0.0000000 )
                  (  0.0000000  1.0000000  0.0000000 )
                  (  0.0000000  0.0000000  1.0000000 )


      isym =  2     180 deg rotation - cart. axis [1,0,0]        

 cryst.   s( 2) = (     1          0          0      )
                  (     0         -1          0      )
                  (     0          0         -1      )

 cart.    s( 2) = (  1.0000000  0.0000000  0.0000000 )
                  (  0.0000000 -1.0000000  0.0000000 )
                  (  0.0000000  0.0000000 -1.0000000 )


      isym =  3      90 deg rotation - cart. axis [-1,0,0]       

 cryst.   s( 3) = (     1          0          0      )
                  (     0          0         -1      )
                  (     0          1          0      )

 cart.    s( 3) = (  1.0000000  0.0000000  0.0000000 )
                  (  0.0000000  0.0000000  1.0000000 )
                  (  0.0000000 -1.0000000  0.0000000 )


      isym =  4      90 deg rotation - cart. axis [1,0,0]        

 cryst.   s( 4) = (     1          0          0      )
                  (     0          0          1      )
                  (     0         -1          0      )

 cart.    s( 4) = (  1.0000000  0.0000000  0.0000000 )
                  (  0.0000000  0.0000000 -1.0000000 )
                  (  0.0000000  1.0000000  0.0000000 )


      isym =  5     inv. 180 deg rotation - cart. axis [0,0,1]   

 cryst.   s( 5) = (     1          0          0      )
                  (     0          1          0      )
                  (     0          0         -1      )

 cart.    s( 5) = (  1.0000000  0.0000000  0.0000000 )
                  (  0.0000000  1.0000000  0.0000000 )
                  (  0.0000000  0.0000000 -1.0000000 )


      isym =  6     inv. 180 deg rotation - cart. axis [0,1,0]   

 cryst.   s( 6) = (     1          0          0      )
                  (     0         -1          0      )
                  (     0          0          1      )

 cart.    s( 6) = (  1.0000000  0.0000000  0.0000000 )
                  (  0.0000000 -1.0000000  0.0000000 )
                  (  0.0000000  0.0000000  1.0000000 )


      isym =  7     inv. 180 deg rotation - cart. axis [0,1,1]   

 cryst.   s( 7) = (     1          0          0      )
                  (     0          0         -1      )
                  (     0         -1          0      )

 cart.    s( 7) = (  1.0000000  0.0000000  0.0000000 )
                  (  0.0000000  0.0000000 -1.0000000 )
                  (  0.0000000 -1.0000000  0.0000000 )


      isym =  8     inv. 180 deg rotation - cart. axis [0,1,-1]  

 cryst.   s( 8) = (     1          0          0      )
                  (     0          0          1      )
                  (     0          1          0      )

 cart.    s( 8) = (  1.0000000  0.0000000  0.0000000 )
                  (  0.0000000  0.0000000  1.0000000 )
                  (  0.0000000  1.0000000  0.0000000 )


     point group C_4v (4mm) 
     there are  5 classes
     the character table:

       E     2C4   C2    2s_v  2s_d 
A_1    1.00  1.00  1.00  1.00  1.00
A_2    1.00  1.00  1.00 -1.00 -1.00
B_1    1.00 -1.00  1.00  1.00 -1.00
B_2    1.00 -1.00  1.00 -1.00  1.00
E      2.00  0.00 -2.00  0.00  0.00

     the symmetry operations in each class and the name of the first element:

     E        1
          identity                                               
     2C4      3    4
           90 deg rotation - cart. axis [-1,0,0]                 
     C2       2
          180 deg rotation - cart. axis [1,0,0]                  
     2s_v     5    6
          inv. 180 deg rotation - cart. axis [0,0,1]             
     2s_d     7    8
          inv. 180 deg rotation - cart. axis [0,1,1]             

   Cartesian axes

     site n.     atom                  positions (alat units)
         1           H   tau(   1) = (   0.0000000   0.0000000   0.0000000  )
         2           H   tau(   2) = (   0.0516525   0.0000000   0.0000000  )

   Crystallographic axes

     site n.     atom                  positions (cryst. coord.)
         1           H   tau(   1) = (  0.0000000  0.0000000  0.0000000  )
         2           H   tau(   2) = (  0.0516525  0.0000000  0.0000000  )

     number of k points=     1
                       cart. coord. in units 2pi/alat
        k(    1) = (  -0.5000000  -0.5000000  -0.5000000), wk =   2.0000000

                       cryst. coord.
        k(    1) = (  -0.5000000  -0.5000000  -0.5000000), wk =   2.0000000

     Dense  grid:   115313 G-vectors     FFT dimensions: (  64,  64,  64)

     Dynamical RAM for                 wfc:       0.44 MB

     Dynamical RAM for     wfc (w. buffer):       0.44 MB

     Dynamical RAM for           str. fact:       1.76 MB

     Dynamical RAM for           local pot:       0.00 MB

     Dynamical RAM for          nlocal pot:       0.44 MB

     Dynamical RAM for                qrad:       0.00 MB

     Dynamical RAM for          rho,v,vnew:      11.28 MB

     Dynamical RAM for               rhoin:       3.76 MB

     Dynamical RAM for            rho*nmix:      28.15 MB

     Dynamical RAM for           G-vectors:       7.48 MB

     Dynamical RAM for          h,s,v(r/c):       0.00 MB

     Dynamical RAM for          <psi|beta>:       0.00 MB

     Dynamical RAM for                 psi:       0.88 MB

     Dynamical RAM for                hpsi:       0.88 MB

     Dynamical RAM for                spsi:       0.88 MB

     Dynamical RAM for      wfcinit/wfcrot:       0.88 MB

     Dynamical RAM for           addusdens:      10.56 MB

     Dynamical RAM for          addusforce:      14.96 MB

     Estimated static dynamical RAM per process >      38.68 MB

     Estimated max dynamical RAM per process >      81.79 MB

     Initial potential from superposition of free atoms

     starting charge       2.0000, renormalised to       2.0000

     negative rho (up, down):  1.997E-01 0.000E+00
     Starting wfcs are    2 randomized atomic wfcs

     total cpu time spent up to now is        0.2 secs

     Self-consistent Calculation

     iteration #  1     ecut=    10.00 Ry     beta= 0.70
     Davidson diagonalization with overlap

---- Real-time Memory Report at c_bands before calling an iterative solver
            81 MiB given to the printing process from OS
             0 MiB allocation reported by mallinfo(arena+hblkhd)
           508 MiB available memory on the node where the printing process lives
------------------
     ethr =  1.00E-02,  avg # of iterations =  5.0

     negative rho (up, down):  2.785E-01 0.000E+00

     total cpu time spent up to now is        0.5 secs

     total energy              =      -2.24705066 Ry
     estimated scf accuracy    <       0.09189753 Ry

     iteration #  2     ecut=    10.00 Ry     beta= 0.70
     Davidson diagonalization with overlap

---- Real-time Memory Report at c_bands before calling an iterative solver
           101 MiB given to the printing process from OS
             0 MiB allocation reported by mallinfo(arena+hblkhd)
           468 MiB available memory on the node where the printing process lives
------------------
     ethr =  4.59E-03,  avg # of iterations =  1.0

     negative rho (up, down):  2.933E-01 0.000E+00

     total cpu time spent up to now is        0.7 secs

     total energy              =      -2.24704648 Ry
     estimated scf accuracy    <       0.00136642 Ry

     iteration #  3     ecut=    10.00 Ry     beta= 0.70
     Davidson diagonalization with overlap

---- Real-time Memory Report at c_bands before calling an iterative solver
           105 MiB given to the printing process from OS
             0 MiB allocation reported by mallinfo(arena+hblkhd)
           464 MiB available memory on the node where the printing process lives
------------------
     ethr =  6.83E-05,  avg # of iterations =  9.0

     negative rho (up, down):  2.925E-01 0.000E+00

     total cpu time spent up to now is        0.9 secs

     total energy              =      -2.24779511 Ry
     estimated scf accuracy    <       0.00001773 Ry

     iteration #  4     ecut=    10.00 Ry     beta= 0.70
     Davidson diagonalization with overlap

---- Real-time Memory Report at c_bands before calling an iterative solver
           109 MiB given to the printing process from OS
             0 MiB allocation reported by mallinfo(arena+hblkhd)
           461 MiB available memory on the node where the printing process lives
------------------
     ethr =  8.87E-07,  avg # of iterations =  6.0

     negative rho (up, down):  2.928E-01 0.000E+00

     total cpu time spent up to now is        1.2 secs

     total energy              =      -2.24764832 Ry
     estimated scf accuracy    <       0.00000100 Ry

     iteration #  5     ecut=    10.00 Ry     beta= 0.70
     Davidson diagonalization with overlap

---- Real-time Memory Report at c_bands before calling an iterative solver
           112 MiB given to the printing process from OS
             0 MiB allocation reported by mallinfo(arena+hblkhd)
           457 MiB available memory on the node where the printing process lives
------------------
     ethr =  5.00E-08,  avg # of iterations =  3.0

     negative rho (up, down):  2.928E-01 0.000E+00

     total cpu time spent up to now is        1.4 secs

     total energy              =      -2.24768060 Ry
     estimated scf accuracy    <       0.00000007 Ry

     iteration #  6     ecut=    10.00 Ry     beta= 0.70
     Davidson diagonalization with overlap

---- Real-time Memory Report at c_bands before calling an iterative solver
           116 MiB given to the printing process from OS
             0 MiB allocation reported by mallinfo(arena+hblkhd)
           454 MiB available memory on the node where the printing process lives
------------------
     ethr =  3.60E-09,  avg # of iterations =  3.0

     negative rho (up, down):  2.928E-01 0.000E+00

     total cpu time spent up to now is        1.6 secs

     End of self-consistent calculation

          k =-0.5000-0.5000-0.5000 ( 14400 PWs)   bands (ev):

   -10.3853  -1.4408

     occupation numbers 
     1.0000   0.0000

     highest occupied, lowest unoccupied level (ev):   -10.3853   -1.4408

!    total energy              =      -2.24763995 Ry
     estimated scf accuracy    <          3.4E-09 Ry

     The total energy is the sum of the following terms:
     one-electron contribution =      -3.98450837 Ry
     hartree contribution      =       2.15194731 Ry
     xc contribution           =      -1.32782265 Ry
     ewald contribution        =       0.91274378 Ry

     convergence has been achieved in   6 iterations

     Forces acting on atoms (cartesian axes, Ry/au):

     atom    1 type  1   force =     0.17427751    0.00000000    0.00000000
     atom    2 type  1   force =    -0.17427751    0.00000000    0.00000000
     The non-local contrib.  to forces
     atom    1 type  1   force =     0.17713241    0.00000000    0.00000000
     atom    2 type  1   force =    -0.17418449    0.00000000    0.00000000
     The ionic contribution  to forces
     atom    1 type  1   force =    -0.83243774   -0.00000000   -0.00000000
     atom    2 type  1   force =     0.83243774    0.00000000   -0.00000000
     The local contribution  to forces
     atom    1 type  1   force =     0.83160468    0.00000000   -0.00000000
     atom    2 type  1   force =    -0.83118544    0.00000000    0.00000000
     The core correction contribution to forces
     atom    1 type  1   force =     0.00000000    0.00000000    0.00000000
     atom    2 type  1   force =     0.00000000    0.00000000    0.00000000
     The Hubbard contrib.    to forces
     atom    1 type  1   force =     0.00000000    0.00000000    0.00000000
     atom    2 type  1   force =     0.00000000    0.00000000    0.00000000
     The SCF correction term to forces
     atom    1 type  1   force =    -0.00078151   -0.00000000    0.00000000
     atom    2 type  1   force =    -0.00010498   -0.00000000    0.00000000

     Total force =     0.246466     Total SCF correction =     0.000789

     BFGS Geometry Optimization
     Energy error            =      0.0E+00 Ry
     Gradient error          =      1.7E-01 Ry/Bohr

     number of scf cycles    =   1
     number of bfgs steps    =   0

     energy             new  =      -2.2476399452 Ry

     new trust radius        =       0.1742775068 bohr
     new conv_thr            =       0.0000000100 Ry


ATOMIC_POSITIONS (angstrom)
H             0.0922236850        0.0000000000        0.0000000000
H             0.7277763150        0.0000000000        0.0000000000



     Writing config-only to output data dir ./.save/
     NEW-OLD atomic charge density approx. for the potential

     negative rho (up, down):  3.057E-01 0.000E+00

     total cpu time spent up to now is        1.8 secs

     Self-consistent Calculation

     iteration #  1     ecut=    10.00 Ry     beta= 0.70
     Davidson diagonalization with overlap

---- Real-time Memory Report at c_bands before calling an iterative solver
           118 MiB given to the printing process from OS
             0 MiB allocation reported by mallinfo(arena+hblkhd)
           503 MiB available memory on the node where the printing process lives
------------------
     ethr =  1.00E-06,  avg # of iterations = 14.0

     negative rho (up, down):  3.760E-01 0.000E+00

     total cpu time spent up to now is        2.1 secs

     total energy              =      -2.21178069 Ry
     estimated scf accuracy    <       0.00789870 Ry

     iteration #  2     ecut=    10.00 Ry     beta= 0.70
     Davidson diagonalization with overlap

---- Real-time Memory Report at c_bands before calling an iterative solver
           118 MiB given to the printing process from OS
             0 MiB allocation reported by mallinfo(arena+hblkhd)
           465 MiB available memory on the node where the printing process lives
------------------
     ethr =  3.95E-04,  avg # of iterations =  2.0

     negative rho (up, down):  3.917E-01 0.000E+00

     total cpu time spent up to now is        2.3 secs

     total energy              =      -2.20585270 Ry
     estimated scf accuracy    <       0.00005576 Ry

     iteration #  3     ecut=    10.00 Ry     beta= 0.70
     Davidson diagonalization with overlap

---- Real-time Memory Report at c_bands before calling an iterative solver
           118 MiB given to the printing process from OS
             0 MiB allocation reported by mallinfo(arena+hblkhd)
           462 MiB available memory on the node where the printing process lives
------------------
     ethr =  2.79E-06,  avg # of iterations =  5.0

     negative rho (up, down):  3.952E-01 0.000E+00

     total cpu time spent up to now is        2.6 secs

     total energy              =      -2.20414227 Ry
     estimated scf accuracy    <       0.00000260 Ry

     iteration #  4     ecut=    10.00 Ry     beta= 0.70
     Davidson diagonalization with overlap

---- Real-time Memory Report at c_bands before calling an iterative solver
           118 MiB given to the printing process from OS
             0 MiB allocation reported by mallinfo(arena+hblkhd)
           458 MiB available memory on the node where the printing process lives
------------------
     ethr =  1.30E-07,  avg # of iterations =  3.0

     negative rho (up, down):  3.963E-01 0.000E+00

     total cpu time spent up to now is        2.8 secs

     total energy              =      -2.20367887 Ry
     estimated scf accuracy    <       0.00000073 Ry

     iteration #  5     ecut=    10.00 Ry     beta= 0.70
     Davidson diagonalization with overlap

---- Real-time Memory Report at c_bands before calling an iterative solver
           118 MiB given to the printing process from OS
             0 MiB allocation reported by mallinfo(arena+hblkhd)
           455 MiB available memory on the node where the printing process lives
------------------
     ethr =  3.65E-08,  avg # of iterations =  4.0

     negative rho (up, down):  3.964E-01 0.000E+00

     total cpu time spent up to now is        3.0 secs

     total energy              =      -2.20373260 Ry
     estimated scf accuracy    <       0.00000145 Ry

     iteration #  6     ecut=    10.00 Ry     beta= 0.70
     Davidson diagonalization with overlap

---- Real-time Memory Report at c_bands before calling an iterative solver
           119 MiB given to the printing process from OS
             0 MiB allocation reported by mallinfo(arena+hblkhd)
           451 MiB available memory on the node where the printing process lives
------------------
     ethr =  3.65E-08,  avg # of iterations =  2.0

     negative rho (up, down):  3.964E-01 0.000E+00

     total cpu time spent up to now is        3.2 secs

     total energy              =      -2.20371356 Ry
     estimated scf accuracy    <       0.00000110 Ry

     iteration #  7     ecut=    10.00 Ry     beta= 0.70
     Davidson diagonalization with overlap

---- Real-time Memory Report at c_bands before calling an iterative solver
           122 MiB given to the printing process from OS
             0 MiB allocation reported by mallinfo(arena+hblkhd)
           448 MiB available memory on the node where the printing process lives
------------------
     ethr =  3.65E-08,  avg # of iterations =  3.0

     negative rho (up, down):  3.963E-01 0.000E+00

     total cpu time spent up to now is        3.4 secs

     total energy              =      -2.20372620 Ry
     estimated scf accuracy    <       0.00000117 Ry

     iteration #  8     ecut=    10.00 Ry     beta= 0.70
     Davidson diagonalization with overlap

---- Real-time Memory Report at c_bands before calling an iterative solver
           126 MiB given to the printing process from OS
             0 MiB allocation reported by mallinfo(arena+hblkhd)
           444 MiB available memory on the node where the printing process lives
------------------
     ethr =  3.65E-08,  avg # of iterations =  3.0

     negative rho (up, down):  3.963E-01 0.000E+00

     total cpu time spent up to now is        3.7 secs

     total energy              =      -2.20372748 Ry
     estimated scf accuracy    <       0.00000195 Ry

     iteration #  9     ecut=    10.00 Ry     beta= 0.70
     Davidson diagonalization with overlap

---- Real-time Memory Report at c_bands before calling an iterative solver
           129 MiB given to the printing process from OS
             0 MiB allocation reported by mallinfo(arena+hblkhd)
           441 MiB available memory on the node where the printing process lives
------------------
     ethr =  3.65E-08,  avg # of iterations =  2.0

     negative rho (up, down):  3.965E-01 0.000E+00

     total cpu time spent up to now is        3.9 secs

     total energy              =      -2.20365491 Ry
     estimated scf accuracy    <       0.00000124 Ry

     iteration # 10     ecut=    10.00 Ry     beta= 0.70
     Davidson diagonalization with overlap

---- Real-time Memory Report at c_bands before calling an iterative solver
           133 MiB given to the printing process from OS
             0 MiB allocation reported by mallinfo(arena+hblkhd)
           437 MiB available memory on the node where the printing process lives
------------------
     ethr =  3.65E-08,  avg # of iterations =  3.0

     negative rho (up, down):  3.968E-01 0.000E+00

     total cpu time spent up to now is        4.1 secs

     total energy              =      -2.20350530 Ry
     estimated scf accuracy    <       0.00000114 Ry

     iteration # 11     ecut=    10.00 Ry     beta= 0.70
     Davidson diagonalization with overlap

---- Real-time Memory Report at c_bands before calling an iterative solver
           133 MiB given to the printing process from OS
             0 MiB allocation reported by mallinfo(arena+hblkhd)
           437 MiB available memory on the node where the printing process lives
------------------
     ethr =  3.65E-08,  avg # of iterations =  3.0

     negative rho (up, down):  3.966E-01 0.000E+00

     total cpu time spent up to now is        4.3 secs

     total energy              =      -2.20359767 Ry
     estimated scf accuracy    <       0.00000582 Ry

     iteration # 12     ecut=    10.00 Ry     beta= 0.70
     Davidson diagonalization with overlap

---- Real-time Memory Report at c_bands before calling an iterative solver
           133 MiB given to the printing process from OS
             0 MiB allocation reported by mallinfo(arena+hblkhd)
           437 MiB available memory on the node where the printing process lives
------------------
     ethr =  3.65E-08,  avg # of iterations =  2.0

     negative rho (up, down):  3.966E-01 0.000E+00

     total cpu time spent up to now is        4.5 secs

     total energy              =      -2.20360215 Ry
     estimated scf accuracy    <       0.00000351 Ry

     iteration # 13     ecut=    10.00 Ry     beta= 0.70
     Davidson diagonalization with overlap

---- Real-time Memory Report at c_bands before calling an iterative solver
           133 MiB given to the printing process from OS
             0 MiB allocation reported by mallinfo(arena+hblkhd)
           437 MiB available memory on the node where the printing process lives
------------------
     ethr =  3.65E-08,  avg # of iterations =  2.0

     negative rho (up, down):  3.962E-01 0.000E+00

     total cpu time spent up to now is        4.8 secs

     total energy              =      -2.20378213 Ry
     estimated scf accuracy    <       0.00000221 Ry

     iteration # 14     ecut=    10.00 Ry     beta= 0.70
     Davidson diagonalization with overlap

---- Real-time Memory Report at c_bands before calling an iterative solver
           133 MiB given to the printing process from OS
             0 MiB allocation reported by mallinfo(arena+hblkhd)
           437 MiB available memory on the node where the printing process lives
------------------
     ethr =  3.65E-08,  avg # of iterations =  3.0

     negative rho (up, down):  3.963E-01 0.000E+00

     total cpu time spent up to now is        5.0 secs

     total energy              =      -2.20378549 Ry
     estimated scf accuracy    <       0.00000200 Ry

     iteration # 15     ecut=    10.00 Ry     beta= 0.70
     Davidson diagonalization with overlap

---- Real-time Memory Report at c_bands before calling an iterative solver
           133 MiB given to the printing process from OS
             0 MiB allocation reported by mallinfo(arena+hblkhd)
           437 MiB available memory on the node where the printing process lives
------------------
     ethr =  3.65E-08,  avg # of iterations =  2.0

     negative rho (up, down):  3.951E-01 0.000E+00

     total cpu time spent up to now is        5.2 secs

     total energy              =      -2.20416855 Ry
     estimated scf accuracy    <       0.00000075 Ry

     iteration # 16     ecut=    10.00 Ry     beta= 0.70
     Davidson diagonalization with overlap

---- Real-time Memory Report at c_bands before calling an iterative solver
           133 MiB given to the printing process from OS
             0 MiB allocation reported by mallinfo(arena+hblkhd)
           437 MiB available memory on the node where the printing process lives
------------------
     ethr =  3.65E-08,  avg # of iterations =  3.0

     negative rho (up, down):  3.960E-01 0.000E+00

     total cpu time spent up to now is        5.4 secs

     total energy              =      -2.20384405 Ry
     estimated scf accuracy    <       0.00002052 Ry

     iteration # 17     ecut=    10.00 Ry     beta= 0.70
     Davidson diagonalization with overlap

---- Real-time Memory Report at c_bands before calling an iterative solver
           133 MiB given to the printing process from OS
             0 MiB allocation reported by mallinfo(arena+hblkhd)
           437 MiB available memory on the node where the printing process lives
------------------
     ethr =  3.65E-08,  avg # of iterations =  4.0

     negative rho (up, down):  3.959E-01 0.000E+00

     total cpu time spent up to now is        5.7 secs

     total energy              =      -2.20396617 Ry
     estimated scf accuracy    <       0.00000097 Ry

     iteration # 18     ecut=    10.00 Ry     beta= 0.70
     Davidson diagonalization with overlap

---- Real-time Memory Report at c_bands before calling an iterative solver
           133 MiB given to the printing process from OS
             0 MiB allocation reported by mallinfo(arena+hblkhd)
           437 MiB available memory on the node where the printing process lives
------------------
     ethr =  3.65E-08,  avg # of iterations =  4.0

     negative rho (up, down):  3.958E-01 0.000E+00

     total cpu time spent up to now is        5.9 secs

     total energy              =      -2.20403468 Ry
     estimated scf accuracy    <       0.00000578 Ry

     iteration # 19     ecut=    10.00 Ry     beta= 0.70
     Davidson diagonalization with overlap

---- Real-time Memory Report at c_bands before calling an iterative solver
           133 MiB given to the printing process from OS
             0 MiB allocation reported by mallinfo(arena+hblkhd)
           437 MiB available memory on the node where the printing process lives
------------------
     ethr =  3.65E-08,  avg # of iterations =  4.0

     negative rho (up, down):  3.955E-01 0.000E+00

     total cpu time spent up to now is        6.1 secs

     total energy              =      -2.20403296 Ry
     estimated scf accuracy    <       0.00000084 Ry

     iteration # 20     ecut=    10.00 Ry     beta= 0.70
     Davidson diagonalization with overlap

---- Real-time Memory Report at c_bands before calling an iterative solver
           133 MiB given to the printing process from OS
             0 MiB allocation reported by mallinfo(arena+hblkhd)
           437 MiB available memory on the node where the printing process lives
------------------
     ethr =  3.65E-08,  avg # of iterations =  4.0

     negative rho (up, down):  3.958E-01 0.000E+00

     total cpu time spent up to now is        6.4 secs

     total energy              =      -2.20397468 Ry
     estimated scf accuracy    <       0.00000427 Ry

     iteration # 21     ecut=    10.00 Ry     beta= 0.70
     Davidson diagonalization with overlap

---- Real-time Memory Report at c_bands before calling an iterative solver
           133 MiB given to the printing process from OS
             0 MiB allocation reported by mallinfo(arena+hblkhd)
           437 MiB available memory on the node where the printing process lives
------------------
     ethr =  3.65E-08,  avg # of iterations =  3.0

     negative rho (up, down):  3.962E-01 0.000E+00

     total cpu time spent up to now is        6.6 secs

     total energy              =      -2.20380458 Ry
     estimated scf accuracy    <       0.00000237 Ry

     iteration # 22     ecut=    10.00 Ry     beta= 0.70
     Davidson diagonalization with overlap

---- Real-time Memory Report at c_bands before calling an iterative solver
           133 MiB given to the printing process from OS
             0 MiB allocation reported by mallinfo(arena+hblkhd)
           437 MiB available memory on the node where the printing process lives
------------------
     ethr =  3.65E-08,  avg # of iterations =  4.0

     negative rho (up, down):  3.961E-01 0.000E+00

     total cpu time spent up to now is        6.8 secs

     total energy              =      -2.20389187 Ry
     estimated scf accuracy    <       0.00000066 Ry

     iteration # 23     ecut=    10.00 Ry     beta= 0.70
     Davidson diagonalization with overlap

---- Real-time Memory Report at c_bands before calling an iterative solver
           133 MiB given to the printing process from OS
             0 MiB allocation reported by mallinfo(arena+hblkhd)
           437 MiB available memory on the node where the printing process lives
------------------
     ethr =  3.32E-08,  avg # of iterations =  3.0

     negative rho (up, down):  3.961E-01 0.000E+00

     total cpu time spent up to now is        7.1 secs

     total energy              =      -2.20390575 Ry
     estimated scf accuracy    <       0.00000086 Ry

     iteration # 24     ecut=    10.00 Ry     beta= 0.70
     Davidson diagonalization with overlap

---- Real-time Memory Report at c_bands before calling an iterative solver
           133 MiB given to the printing process from OS
             0 MiB allocation reported by mallinfo(arena+hblkhd)
           437 MiB available memory on the node where the printing process lives
------------------
     ethr =  3.32E-08,  avg # of iterations =  2.0

     negative rho (up, down):  3.962E-01 0.000E+00

     total cpu time spent up to now is        7.3 secs

     total energy              =      -2.20380739 Ry
     estimated scf accuracy    <       0.00000135 Ry

     iteration # 25     ecut=    10.00 Ry     beta= 0.70
     Davidson diagonalization with overlap

---- Real-time Memory Report at c_bands before calling an iterative solver
           133 MiB given to the printing process from OS
             0 MiB allocation reported by mallinfo(arena+hblkhd)
           437 MiB available memory on the node where the printing process lives
------------------
     ethr =  3.32E-08,  avg # of iterations =  3.0

     negative rho (up, down):  3.963E-01 0.000E+00

     total cpu time spent up to now is        7.5 secs

     total energy              =      -2.20376314 Ry
     estimated scf accuracy    <       0.00000103 Ry

     iteration # 26     ecut=    10.00 Ry     beta= 0.70
     Davidson diagonalization with overlap

---- Real-time Memory Report at c_bands before calling an iterative solver
           133 MiB given to the printing process from OS
             0 MiB allocation reported by mallinfo(arena+hblkhd)
           437 MiB available memory on the node where the printing process lives
------------------
     ethr =  3.32E-08,  avg # of iterations =  4.0

     negative rho (up, down):  3.962E-01 0.000E+00

     total cpu time spent up to now is        7.7 secs

     total energy              =      -2.20376036 Ry
     estimated scf accuracy    <       0.00000826 Ry

     iteration # 27     ecut=    10.00 Ry     beta= 0.70
     Davidson diagonalization with overlap

---- Real-time Memory Report at c_bands before calling an iterative solver
           133 MiB given to the printing process from OS
             0 MiB allocation reported by mallinfo(arena+hblkhd)
           437 MiB available memory on the node where the printing process lives
------------------
     ethr =  3.32E-08,  avg # of iterations =  4.0

     negative rho (up, down):  3.963E-01 0.000E+00

     total cpu time spent up to now is        8.0 secs

     total energy              =      -2.20378141 Ry
     estimated scf accuracy    <       0.00000092 Ry

     iteration # 28     ecut=    10.00 Ry     beta= 0.70
     Davidson diagonalization with overlap

---- Real-time Memory Report at c_bands before calling an iterative solver
           133 MiB given to the printing process from OS
             0 MiB allocation reported by mallinfo(arena+hblkhd)
           437 MiB available memory on the node where the printing process lives
------------------
     ethr =  3.32E-08,  avg # of iterations =  4.0

     negative rho (up, down):  3.962E-01 0.000E+00

     total cpu time spent up to now is        8.2 secs

     total energy              =      -2.20386261 Ry
     estimated scf accuracy    <       0.00000590 Ry

     iteration # 29     ecut=    10.00 Ry     beta= 0.70
     Davidson diagonalization with overlap

---- Real-time Memory Report at c_bands before calling an iterative solver
           133 MiB given to the printing process from OS
             0 MiB allocation reported by mallinfo(arena+hblkhd)
           437 MiB available memory on the node where the printing process lives
------------------
     ethr =  3.32E-08,  avg # of iterations =  4.0

     negative rho (up, down):  3.962E-01 0.000E+00

     total cpu time spent up to now is        8.4 secs

     total energy              =      -2.20385708 Ry
     estimated scf accuracy    <       0.00001353 Ry

     iteration # 30     ecut=    10.00 Ry     beta= 0.70
     Davidson diagonalization with overlap

---- Real-time Memory Report at c_bands before calling an iterative solver
           133 MiB given to the printing process from OS
             0 MiB allocation reported by mallinfo(arena+hblkhd)
           437 MiB available memory on the node where the printing process lives
------------------
     ethr =  3.32E-08,  avg # of iterations =  2.0

     negative rho (up, down):  3.962E-01 0.000E+00

     total cpu time spent up to now is        8.6 secs

     total energy              =      -2.20386301 Ry
     estimated scf accuracy    <       0.00001168 Ry

     iteration # 31     ecut=    10.00 Ry     beta= 0.70
     Davidson diagonalization with overlap

---- Real-time Memory Report at c_bands before calling an iterative solver
           133 MiB given to the printing process from OS
             0 MiB allocation reported by mallinfo(arena+hblkhd)
           437 MiB available memory on the node where the printing process lives
------------------
     ethr =  3.32E-08,  avg # of iterations =  1.0

     negative rho (up, down):  3.962E-01 0.000E+00

     total cpu time spent up to now is        8.8 secs

     total energy              =      -2.20372628 Ry
     estimated scf accuracy    <       0.00001174 Ry

     iteration # 32     ecut=    10.00 Ry     beta= 0.70
     Davidson diagonalization with overlap

---- Real-time Memory Report at c_bands before calling an iterative solver
           133 MiB given to the printing process from OS
             0 MiB allocation reported by mallinfo(arena+hblkhd)
           437 MiB available memory on the node where the printing process lives
------------------
     ethr =  3.32E-08,  avg # of iterations =  4.0

     negative rho (up, down):  3.962E-01 0.000E+00

     total cpu time spent up to now is        9.1 secs

     total energy              =      -2.20380355 Ry
     estimated scf accuracy    <       0.00000081 Ry

     iteration # 33     ecut=    10.00 Ry     beta= 0.70
     Davidson diagonalization with overlap

---- Real-time Memory Report at c_bands before calling an iterative solver
           133 MiB given to the printing process from OS
             0 MiB allocation reported by mallinfo(arena+hblkhd)
           437 MiB available memory on the node where the printing process lives
------------------
     ethr =  3.32E-08,  avg # of iterations =  4.0

     negative rho (up, down):  3.963E-01 0.000E+00

     total cpu time spent up to now is        9.3 secs

     total energy              =      -2.20364725 Ry
     estimated scf accuracy    <       0.00001817 Ry

     iteration # 34     ecut=    10.00 Ry     beta= 0.70
     Davidson diagonalization with overlap

---- Real-time Memory Report at c_bands before calling an iterative solver
           133 MiB given to the printing process from OS
             0 MiB allocation reported by mallinfo(arena+hblkhd)
           437 MiB available memory on the node where the printing process lives
------------------
     ethr =  3.32E-08,  avg # of iterations =  4.0

     negative rho (up, down):  3.963E-01 0.000E+00

     total cpu time spent up to now is        9.6 secs

     total energy              =      -2.20371058 Ry
     estimated scf accuracy    <       0.00000312 Ry

     iteration # 35     ecut=    10.00 Ry     beta= 0.70
     Davidson diagonalization with overlap

---- Real-time Memory Report at c_bands before calling an iterative solver
           133 MiB given to the printing process from OS
             0 MiB allocation reported by mallinfo(arena+hblkhd)
           437 MiB available memory on the node where the printing process lives
------------------
     ethr =  3.32E-08,  avg # of iterations =  3.0

     negative rho (up, down):  3.963E-01 0.000E+00

     total cpu time spent up to now is        9.8 secs

     total energy              =      -2.20373943 Ry
     estimated scf accuracy    <       0.00000187 Ry

     iteration # 36     ecut=    10.00 Ry     beta= 0.70
     Davidson diagonalization with overlap

---- Real-time Memory Report at c_bands before calling an iterative solver
           133 MiB given to the printing process from OS
             0 MiB allocation reported by mallinfo(arena+hblkhd)
           437 MiB available memory on the node where the printing process lives
------------------
     ethr =  3.32E-08,  avg # of iterations =  3.0

     negative rho (up, down):  3.963E-01 0.000E+00

     total cpu time spent up to now is       10.0 secs

     total energy              =      -2.20373085 Ry
     estimated scf accuracy    <       0.00000374 Ry

     iteration # 37     ecut=    10.00 Ry     beta= 0.70
     Davidson diagonalization with overlap

---- Real-time Memory Report at c_bands before calling an iterative solver
           133 MiB given to the printing process from OS
             0 MiB allocation reported by mallinfo(arena+hblkhd)
           437 MiB available memory on the node where the printing process lives
------------------
     ethr =  3.32E-08,  avg # of iterations =  2.0

     negative rho (up, down):  3.963E-01 0.000E+00

     total cpu time spent up to now is       10.2 secs

     total energy              =      -2.20374389 Ry
     estimated scf accuracy    <       0.00000303 Ry

     iteration # 38     ecut=    10.00 Ry     beta= 0.70
     Davidson diagonalization with overlap

---- Real-time Memory Report at c_bands before calling an iterative solver
           133 MiB given to the printing process from OS
             0 MiB allocation reported by mallinfo(arena+hblkhd)
           437 MiB available memory on the node where the printing process lives
------------------
     ethr =  3.32E-08,  avg # of iterations =  2.0

     negative rho (up, down):  3.963E-01 0.000E+00

     total cpu time spent up to now is       10.4 secs

     total energy              =      -2.20367513 Ry
     estimated scf accuracy    <       0.00000351 Ry

     iteration # 39     ecut=    10.00 Ry     beta= 0.70
     Davidson diagonalization with overlap

---- Real-time Memory Report at c_bands before calling an iterative solver
           133 MiB given to the printing process from OS
             0 MiB allocation reported by mallinfo(arena+hblkhd)
           437 MiB available memory on the node where the printing process lives
------------------
     ethr =  3.32E-08,  avg # of iterations =  4.0

     negative rho (up, down):  3.964E-01 0.000E+00

     total cpu time spent up to now is       10.7 secs

     total energy              =      -2.20367744 Ry
     estimated scf accuracy    <       0.00000052 Ry

     iteration # 40     ecut=    10.00 Ry     beta= 0.70
     Davidson diagonalization with overlap

---- Real-time Memory Report at c_bands before calling an iterative solver
           133 MiB given to the printing process from OS
             0 MiB allocation reported by mallinfo(arena+hblkhd)
           437 MiB available memory on the node where the printing process lives
------------------
     ethr =  2.58E-08,  avg # of iterations =  2.0

     negative rho (up, down):  3.963E-01 0.000E+00

     total cpu time spent up to now is       10.9 secs

     total energy              =      -2.20375042 Ry
     estimated scf accuracy    <       0.00000041 Ry

     iteration # 41     ecut=    10.00 Ry     beta= 0.70
     Davidson diagonalization with overlap

---- Real-time Memory Report at c_bands before calling an iterative solver
           133 MiB given to the printing process from OS
             0 MiB allocation reported by mallinfo(arena+hblkhd)
           437 MiB available memory on the node where the printing process lives
------------------
     ethr =  2.06E-08,  avg # of iterations =  4.0

     negative rho (up, down):  3.964E-01 0.000E+00

     total cpu time spent up to now is       11.1 secs

     total energy              =      -2.20364245 Ry
     estimated scf accuracy    <       0.00000684 Ry

     iteration # 42     ecut=    10.00 Ry     beta= 0.70
     Davidson diagonalization with overlap

---- Real-time Memory Report at c_bands before calling an iterative solver
           133 MiB given to the printing process from OS
             0 MiB allocation reported by mallinfo(arena+hblkhd)
           437 MiB available memory on the node where the printing process lives
------------------
     ethr =  2.06E-08,  avg # of iterations =  4.0

     negative rho (up, down):  3.964E-01 0.000E+00

     total cpu time spent up to now is       11.3 secs

     total energy              =      -2.20368415 Ry
     estimated scf accuracy    <       0.00000069 Ry

     iteration # 43     ecut=    10.00 Ry     beta= 0.70
     Davidson diagonalization with overlap

---- Real-time Memory Report at c_bands before calling an iterative solver
           133 MiB given to the printing process from OS
             0 MiB allocation reported by mallinfo(arena+hblkhd)
           437 MiB available memory on the node where the printing process lives
------------------
     ethr =  2.06E-08,  avg # of iterations =  2.0

     negative rho (up, down):  3.964E-01 0.000E+00

     total cpu time spent up to now is       11.6 secs

     total energy              =      -2.20365274 Ry
     estimated scf accuracy    <       0.00000052 Ry

     iteration # 44     ecut=    10.00 Ry     beta= 0.70
     Davidson diagonalization with overlap

---- Real-time Memory Report at c_bands before calling an iterative solver
           133 MiB given to the printing process from OS
             0 MiB allocation reported by mallinfo(arena+hblkhd)
           437 MiB available memory on the node where the printing process lives
------------------
     ethr =  2.06E-08,  avg # of iterations =  3.0

     negative rho (up, down):  3.965E-01 0.000E+00

     total cpu time spent up to now is       11.8 secs

     total energy              =      -2.20365749 Ry
     estimated scf accuracy    <       0.00000024 Ry

     iteration # 45     ecut=    10.00 Ry     beta= 0.70
     Davidson diagonalization with overlap

---- Real-time Memory Report at c_bands before calling an iterative solver
           133 MiB given to the printing process from OS
             0 MiB allocation reported by mallinfo(arena+hblkhd)
           437 MiB available memory on the node where the printing process lives
------------------
     ethr =  1.18E-08,  avg # of iterations =  3.0

     negative rho (up, down):  3.965E-01 0.000E+00

     total cpu time spent up to now is       12.0 secs

     total energy              =      -2.20363581 Ry
     estimated scf accuracy    <       0.00000012 Ry

     iteration # 46     ecut=    10.00 Ry     beta= 0.70
     Davidson diagonalization with overlap

---- Real-time Memory Report at c_bands before calling an iterative solver
           133 MiB given to the printing process from OS
             0 MiB allocation reported by mallinfo(arena+hblkhd)
           437 MiB available memory on the node where the printing process lives
------------------
     ethr =  5.79E-09,  avg # of iterations =  2.0

     negative rho (up, down):  3.966E-01 0.000E+00

     total cpu time spent up to now is       12.2 secs

     total energy              =      -2.20361853 Ry
     estimated scf accuracy    <       0.00000011 Ry

     iteration # 47     ecut=    10.00 Ry     beta= 0.70
     Davidson diagonalization with overlap

---- Real-time Memory Report at c_bands before calling an iterative solver
           133 MiB given to the printing process from OS
             0 MiB allocation reported by mallinfo(arena+hblkhd)
           437 MiB available memory on the node where the printing process lives
------------------
     ethr =  5.45E-09,  avg # of iterations =  2.0

     negative rho (up, down):  3.965E-01 0.000E+00

     total cpu time spent up to now is       12.4 secs

     total energy              =      -2.20362705 Ry
     estimated scf accuracy    <       0.00000015 Ry

     iteration # 48     ecut=    10.00 Ry     beta= 0.70
     Davidson diagonalization with overlap

---- Real-time Memory Report at c_bands before calling an iterative solver
           133 MiB given to the printing process from OS
             0 MiB allocation reported by mallinfo(arena+hblkhd)
           437 MiB available memory on the node where the printing process lives
------------------
     ethr =  5.45E-09,  avg # of iterations =  2.0

     negative rho (up, down):  3.965E-01 0.000E+00

     total cpu time spent up to now is       12.7 secs

     total energy              =      -2.20362781 Ry
     estimated scf accuracy    <       0.00000011 Ry

     iteration # 49     ecut=    10.00 Ry     beta= 0.70
     Davidson diagonalization with overlap

---- Real-time Memory Report at c_bands before calling an iterative solver
           133 MiB given to the printing process from OS
             0 MiB allocation reported by mallinfo(arena+hblkhd)
           437 MiB available memory on the node where the printing process lives
------------------
     ethr =  5.45E-09,  avg # of iterations =  1.0

     negative rho (up, down):  3.965E-01 0.000E+00

     total cpu time spent up to now is       12.9 secs

     total energy              =      -2.20362700 Ry
     estimated scf accuracy    <       0.00000011 Ry

     iteration # 50     ecut=    10.00 Ry     beta= 0.70
     Davidson diagonalization with overlap

---- Real-time Memory Report at c_bands before calling an iterative solver
           133 MiB given to the printing process from OS
             0 MiB allocation reported by mallinfo(arena+hblkhd)
           437 MiB available memory on the node where the printing process lives
------------------
     ethr =  5.45E-09,  avg # of iterations =  1.0

     negative rho (up, down):  3.967E-01 0.000E+00

     total cpu time spent up to now is       13.1 secs

     total energy              =      -2.20359172 Ry
     estimated scf accuracy    <       0.00000011 Ry

     iteration # 51     ecut=    10.00 Ry     beta= 0.70
     Davidson diagonalization with overlap

---- Real-time Memory Report at c_bands before calling an iterative solver
           133 MiB given to the printing process from OS
             0 MiB allocation reported by mallinfo(arena+hblkhd)
           437 MiB available memory on the node where the printing process lives
------------------
     ethr =  5.45E-09,  avg # of iterations =  2.0

     negative rho (up, down):  3.965E-01 0.000E+00

     total cpu time spent up to now is       13.3 secs

     total energy              =      -2.20363135 Ry
     estimated scf accuracy    <       0.00000041 Ry

     iteration # 52     ecut=    10.00 Ry     beta= 0.70
     Davidson diagonalization with overlap

---- Real-time Memory Report at c_bands before calling an iterative solver
           133 MiB given to the printing process from OS
             0 MiB allocation reported by mallinfo(arena+hblkhd)
           437 MiB available memory on the node where the printing process lives
------------------
     ethr =  5.45E-09,  avg # of iterations =  2.0

     negative rho (up, down):  3.965E-01 0.000E+00

     total cpu time spent up to now is       13.5 secs

     total energy              =      -2.20365881 Ry
     estimated scf accuracy    <       0.00000012 Ry

     iteration # 53     ecut=    10.00 Ry     beta= 0.70
     Davidson diagonalization with overlap

---- Real-time Memory Report at c_bands before calling an iterative solver
           133 MiB given to the printing process from OS
             0 MiB allocation reported by mallinfo(arena+hblkhd)
           437 MiB available memory on the node where the printing process lives
------------------
     ethr =  5.45E-09,  avg # of iterations =  2.0

     negative rho (up, down):  3.964E-01 0.000E+00

     total cpu time spent up to now is       13.7 secs

     total energy              =      -2.20368862 Ry
     estimated scf accuracy    <       0.00000011 Ry

     iteration # 54     ecut=    10.00 Ry     beta= 0.70
     Davidson diagonalization with overlap

---- Real-time Memory Report at c_bands before calling an iterative solver
           133 MiB given to the printing process from OS
             0 MiB allocation reported by mallinfo(arena+hblkhd)
           437 MiB available memory on the node where the printing process lives
------------------
     ethr =  5.45E-09,  avg # of iterations =  4.0

     negative rho (up, down):  3.966E-01 0.000E+00

     total cpu time spent up to now is       13.9 secs

     total energy              =      -2.20360124 Ry
     estimated scf accuracy    <       0.00000092 Ry

     iteration # 55     ecut=    10.00 Ry     beta= 0.70
     Davidson diagonalization with overlap

---- Real-time Memory Report at c_bands before calling an iterative solver
           133 MiB given to the printing process from OS
             0 MiB allocation reported by mallinfo(arena+hblkhd)
           437 MiB available memory on the node where the printing process lives
------------------
     ethr =  5.45E-09,  avg # of iterations =  4.0

     negative rho (up, down):  3.966E-01 0.000E+00

     total cpu time spent up to now is       14.2 secs

     total energy              =      -2.20360930 Ry
     estimated scf accuracy    <       0.00000015 Ry

     iteration # 56     ecut=    10.00 Ry     beta= 0.70
     Davidson diagonalization with overlap

---- Real-time Memory Report at c_bands before calling an iterative solver
           133 MiB given to the printing process from OS
             0 MiB allocation reported by mallinfo(arena+hblkhd)
           437 MiB available memory on the node where the printing process lives
------------------
     ethr =  5.45E-09,  avg # of iterations =  1.0

     negative rho (up, down):  3.966E-01 0.000E+00

     total cpu time spent up to now is       14.4 secs

     total energy              =      -2.20360747 Ry
     estimated scf accuracy    <       0.00000021 Ry

     iteration # 57     ecut=    10.00 Ry     beta= 0.70
     Davidson diagonalization with overlap

---- Real-time Memory Report at c_bands before calling an iterative solver
           133 MiB given to the printing process from OS
             0 MiB allocation reported by mallinfo(arena+hblkhd)
           437 MiB available memory on the node where the printing process lives
------------------
     ethr =  5.45E-09,  avg # of iterations =  1.0

     negative rho (up, down):  3.966E-01 0.000E+00

     total cpu time spent up to now is       14.6 secs

     total energy              =      -2.20361590 Ry
     estimated scf accuracy    <       0.00000023 Ry

     iteration # 58     ecut=    10.00 Ry     beta= 0.70
     Davidson diagonalization with overlap

---- Real-time Memory Report at c_bands before calling an iterative solver
           133 MiB given to the printing process from OS
             0 MiB allocation reported by mallinfo(arena+hblkhd)
           437 MiB available memory on the node where the printing process lives
------------------
     ethr =  5.45E-09,  avg # of iterations =  1.0

     negative rho (up, down):  3.966E-01 0.000E+00

     total cpu time spent up to now is       14.8 secs

     total energy              =      -2.20361941 Ry
     estimated scf accuracy    <       0.00000016 Ry

     iteration # 59     ecut=    10.00 Ry     beta= 0.70
     Davidson diagonalization with overlap

---- Real-time Memory Report at c_bands before calling an iterative solver
           133 MiB given to the printing process from OS
             0 MiB allocation reported by mallinfo(arena+hblkhd)
           437 MiB available memory on the node where the printing process lives
------------------
     ethr =  5.45E-09,  avg # of iterations =  1.0

     negative rho (up, down):  3.966E-01 0.000E+00

     total cpu time spent up to now is       15.0 secs

     total energy              =      -2.20360939 Ry
     estimated scf accuracy    <       0.00000014 Ry

     iteration # 60     ecut=    10.00 Ry     beta= 0.70
     Davidson diagonalization with overlap

---- Real-time Memory Report at c_bands before calling an iterative solver
           133 MiB given to the printing process from OS
             0 MiB allocation reported by mallinfo(arena+hblkhd)
           437 MiB available memory on the node where the printing process lives
------------------
     ethr =  5.45E-09,  avg # of iterations =  2.0

     negative rho (up, down):  3.965E-01 0.000E+00

     total cpu time spent up to now is       15.2 secs

     total energy              =      -2.20366210 Ry
     estimated scf accuracy    <       0.00000021 Ry

     iteration # 61     ecut=    10.00 Ry     beta= 0.70
     Davidson diagonalization with overlap

---- Real-time Memory Report at c_bands before calling an iterative solver
           133 MiB given to the printing process from OS
             0 MiB allocation reported by mallinfo(arena+hblkhd)
           437 MiB available memory on the node where the printing process lives
------------------
     ethr =  5.45E-09,  avg # of iterations =  3.0

     negative rho (up, down):  3.965E-01 0.000E+00

     total cpu time spent up to now is       15.4 secs

     total energy              =      -2.20366202 Ry
     estimated scf accuracy    <       0.00000012 Ry

     iteration # 62     ecut=    10.00 Ry     beta= 0.70
     Davidson diagonalization with overlap

---- Real-time Memory Report at c_bands before calling an iterative solver
           133 MiB given to the printing process from OS
             0 MiB allocation reported by mallinfo(arena+hblkhd)
           437 MiB available memory on the node where the printing process lives
------------------
     ethr =  5.45E-09,  avg # of iterations =  1.0

     negative rho (up, down):  3.964E-01 0.000E+00

     total cpu time spent up to now is       15.6 secs

     total energy              =      -2.20366978 Ry
     estimated scf accuracy    <       0.00000012 Ry

     iteration # 63     ecut=    10.00 Ry     beta= 0.70
     Davidson diagonalization with overlap

---- Real-time Memory Report at c_bands before calling an iterative solver
           133 MiB given to the printing process from OS
             0 MiB allocation reported by mallinfo(arena+hblkhd)
           437 MiB available memory on the node where the printing process lives
------------------
     ethr =  5.45E-09,  avg # of iterations =  2.0

     negative rho (up, down):  3.964E-01 0.000E+00

     total cpu time spent up to now is       15.8 secs

     total energy              =      -2.20367247 Ry
     estimated scf accuracy    <       0.00000016 Ry

     iteration # 64     ecut=    10.00 Ry     beta= 0.70
     Davidson diagonalization with overlap

---- Real-time Memory Report at c_bands before calling an iterative solver
           133 MiB given to the printing process from OS
             0 MiB allocation reported by mallinfo(arena+hblkhd)
           437 MiB available memory on the node where the printing process lives
------------------
     ethr =  5.45E-09,  avg # of iterations =  2.0

     negative rho (up, down):  3.964E-01 0.000E+00

     total cpu time spent up to now is       16.1 secs

     total energy              =      -2.20367888 Ry
     estimated scf accuracy    <       0.00000022 Ry

     iteration # 65     ecut=    10.00 Ry     beta= 0.70
     Davidson diagonalization with overlap

---- Real-time Memory Report at c_bands before calling an iterative solver
           133 MiB given to the printing process from OS
             0 MiB allocation reported by mallinfo(arena+hblkhd)
           437 MiB available memory on the node where the printing process lives
------------------
     ethr =  5.45E-09,  avg # of iterations =  2.0

     negative rho (up, down):  3.966E-01 0.000E+00

     total cpu time spent up to now is       16.3 secs

     total energy              =      -2.20360386 Ry
     estimated scf accuracy    <       0.00000026 Ry

     iteration # 66     ecut=    10.00 Ry     beta= 0.70
     Davidson diagonalization with overlap

---- Real-time Memory Report at c_bands before calling an iterative solver
           133 MiB given to the printing process from OS
             0 MiB allocation reported by mallinfo(arena+hblkhd)
           437 MiB available memory on the node where the printing process lives
------------------
     ethr =  5.45E-09,  avg # of iterations =  3.0

     negative rho (up, down):  3.967E-01 0.000E+00

     total cpu time spent up to now is       16.5 secs

     total energy              =      -2.20359350 Ry
     estimated scf accuracy    <       0.00000023 Ry

     iteration # 67     ecut=    10.00 Ry     beta= 0.70
     Davidson diagonalization with overlap

---- Real-time Memory Report at c_bands before calling an iterative solver
           133 MiB given to the printing process from OS
             0 MiB allocation reported by mallinfo(arena+hblkhd)
           437 MiB available memory on the node where the printing process lives
------------------
     ethr =  5.45E-09,  avg # of iterations =  1.0

     negative rho (up, down):  3.967E-01 0.000E+00

     total cpu time spent up to now is       16.7 secs

     total energy              =      -2.20359239 Ry
     estimated scf accuracy    <       0.00000035 Ry

     iteration # 68     ecut=    10.00 Ry     beta= 0.70
     Davidson diagonalization with overlap

---- Real-time Memory Report at c_bands before calling an iterative solver
           133 MiB given to the printing process from OS
             0 MiB allocation reported by mallinfo(arena+hblkhd)
           437 MiB available memory on the node where the printing process lives
------------------
     ethr =  5.45E-09,  avg # of iterations =  1.0

     negative rho (up, down):  3.966E-01 0.000E+00

     total cpu time spent up to now is       16.9 secs

     total energy              =      -2.20361645 Ry
     estimated scf accuracy    <       0.00000037 Ry

     iteration # 69     ecut=    10.00 Ry     beta= 0.70
     Davidson diagonalization with overlap

---- Real-time Memory Report at c_bands before calling an iterative solver
           133 MiB given to the printing process from OS
             0 MiB allocation reported by mallinfo(arena+hblkhd)
           437 MiB available memory on the node where the printing process lives
------------------
     ethr =  5.45E-09,  avg # of iterations =  2.0

     negative rho (up, down):  3.965E-01 0.000E+00

     total cpu time spent up to now is       17.1 secs

     total energy              =      -2.20362800 Ry
     estimated scf accuracy    <       0.00000016 Ry

     iteration # 70     ecut=    10.00 Ry     beta= 0.70
     Davidson diagonalization with overlap

---- Real-time Memory Report at c_bands before calling an iterative solver
           133 MiB given to the printing process from OS
             0 MiB allocation reported by mallinfo(arena+hblkhd)
           437 MiB available memory on the node where the printing process lives
------------------
     ethr =  5.45E-09,  avg # of iterations =  2.0

     negative rho (up, down):  3.966E-01 0.000E+00

     total cpu time spent up to now is       17.3 secs

     total energy              =      -2.20360996 Ry
     estimated scf accuracy    <       0.00000011 Ry

     iteration # 71     ecut=    10.00 Ry     beta= 0.70
     Davidson diagonalization with overlap

---- Real-time Memory Report at c_bands before calling an iterative solver
           133 MiB given to the printing process from OS
             0 MiB allocation reported by mallinfo(arena+hblkhd)
           437 MiB available memory on the node where the printing process lives
------------------
     ethr =  5.39E-09,  avg # of iterations =  2.0

     negative rho (up, down):  3.966E-01 0.000E+00

     total cpu time spent up to now is       17.6 secs

     total energy              =      -2.20360511 Ry
     estimated scf accuracy    <       0.00000021 Ry

     iteration # 72     ecut=    10.00 Ry     beta= 0.70
     Davidson diagonalization with overlap

---- Real-time Memory Report at c_bands before calling an iterative solver
           133 MiB given to the printing process from OS
             0 MiB allocation reported by mallinfo(arena+hblkhd)
           437 MiB available memory on the node where the printing process lives
------------------
     ethr =  5.39E-09,  avg # of iterations =  1.0

     negative rho (up, down):  3.965E-01 0.000E+00

     total cpu time spent up to now is       17.8 secs

     total energy              =      -2.20364171 Ry
     estimated scf accuracy    <       0.00000025 Ry

     iteration # 73     ecut=    10.00 Ry     beta= 0.70
     Davidson diagonalization with overlap

---- Real-time Memory Report at c_bands before calling an iterative solver
           133 MiB given to the printing process from OS
             0 MiB allocation reported by mallinfo(arena+hblkhd)
           437 MiB available memory on the node where the printing process lives
------------------
     ethr =  5.39E-09,  avg # of iterations =  3.0

     negative rho (up, down):  3.965E-01 0.000E+00

     total cpu time spent up to now is       18.0 secs

     total energy              =      -2.20364579 Ry
     estimated scf accuracy    <       0.00000012 Ry

     iteration # 74     ecut=    10.00 Ry     beta= 0.70
     Davidson diagonalization with overlap

---- Real-time Memory Report at c_bands before calling an iterative solver
           133 MiB given to the printing process from OS
             0 MiB allocation reported by mallinfo(arena+hblkhd)
           437 MiB available memory on the node where the printing process lives
------------------
     ethr =  5.39E-09,  avg # of iterations =  2.0

     negative rho (up, down):  3.963E-01 0.000E+00

     total cpu time spent up to now is       18.2 secs

     total energy              =      -2.20369570 Ry
     estimated scf accuracy    <       0.00000013 Ry

     iteration # 75     ecut=    10.00 Ry     beta= 0.70
     Davidson diagonalization with overlap

---- Real-time Memory Report at c_bands before calling an iterative solver
           133 MiB given to the printing process from OS
             0 MiB allocation reported by mallinfo(arena+hblkhd)
           437 MiB available memory on the node where the printing process lives
------------------
     ethr =  5.39E-09,  avg # of iterations =  4.0

     negative rho (up, down):  3.963E-01 0.000E+00

     total cpu time spent up to now is       18.4 secs

     total energy              =      -2.20370726 Ry
     estimated scf accuracy    <       0.00000130 Ry

     iteration # 76     ecut=    10.00 Ry     beta= 0.70
     Davidson diagonalization with overlap

---- Real-time Memory Report at c_bands before calling an iterative solver
           133 MiB given to the printing process from OS
             0 MiB allocation reported by mallinfo(arena+hblkhd)
           437 MiB available memory on the node where the printing process lives
------------------
     ethr =  5.39E-09,  avg # of iterations =  2.0

     negative rho (up, down):  3.964E-01 0.000E+00

     total cpu time spent up to now is       18.6 secs

     total energy              =      -2.20365924 Ry
     estimated scf accuracy    <       0.00000111 Ry

     iteration # 77     ecut=    10.00 Ry     beta= 0.70
     Davidson diagonalization with overlap

---- Real-time Memory Report at c_bands before calling an iterative solver
           133 MiB given to the printing process from OS
             0 MiB allocation reported by mallinfo(arena+hblkhd)
           437 MiB available memory on the node where the printing process lives
------------------
     ethr =  5.39E-09,  avg # of iterations =  4.0

     negative rho (up, down):  3.965E-01 0.000E+00

     total cpu time spent up to now is       18.9 secs

     total energy              =      -2.20364525 Ry
     estimated scf accuracy    <       0.00000020 Ry

     iteration # 78     ecut=    10.00 Ry     beta= 0.70
     Davidson diagonalization with overlap

---- Real-time Memory Report at c_bands before calling an iterative solver
           133 MiB given to the printing process from OS
             0 MiB allocation reported by mallinfo(arena+hblkhd)
           437 MiB available memory on the node where the printing process lives
------------------
     ethr =  5.39E-09,  avg # of iterations =  2.0

     negative rho (up, down):  3.967E-01 0.000E+00

     total cpu time spent up to now is       19.1 secs

     total energy              =      -2.20358444 Ry
     estimated scf accuracy    <       0.00000016 Ry

     iteration # 79     ecut=    10.00 Ry     beta= 0.70
     Davidson diagonalization with overlap

---- Real-time Memory Report at c_bands before calling an iterative solver
           133 MiB given to the printing process from OS
             0 MiB allocation reported by mallinfo(arena+hblkhd)
           437 MiB available memory on the node where the printing process lives
------------------
     ethr =  5.39E-09,  avg # of iterations =  3.0

     negative rho (up, down):  3.965E-01 0.000E+00

     total cpu time spent up to now is       19.3 secs

     total energy              =      -2.20366229 Ry
     estimated scf accuracy    <       0.00000057 Ry

     iteration # 80     ecut=    10.00 Ry     beta= 0.70
     Davidson diagonalization with overlap

---- Real-time Memory Report at c_bands before calling an iterative solver
           133 MiB given to the printing process from OS
             0 MiB allocation reported by mallinfo(arena+hblkhd)
           437 MiB available memory on the node where the printing process lives
------------------
     ethr =  5.39E-09,  avg # of iterations =  3.0

     negative rho (up, down):  3.964E-01 0.000E+00

     total cpu time spent up to now is       19.5 secs

     total energy              =      -2.20367677 Ry
     estimated scf accuracy    <       0.00000012 Ry

     iteration # 81     ecut=    10.00 Ry     beta= 0.70
     Davidson diagonalization with overlap

---- Real-time Memory Report at c_bands before calling an iterative solver
           133 MiB given to the printing process from OS
             0 MiB allocation reported by mallinfo(arena+hblkhd)
           437 MiB available memory on the node where the printing process lives
------------------
     ethr =  5.39E-09,  avg # of iterations =  3.0

     negative rho (up, down):  3.965E-01 0.000E+00

     total cpu time spent up to now is       19.8 secs

     total energy              =      -2.20362035 Ry
     estimated scf accuracy    <       0.00000027 Ry

     iteration # 82     ecut=    10.00 Ry     beta= 0.70
     Davidson diagonalization with overlap

---- Real-time Memory Report at c_bands before calling an iterative solver
           133 MiB given to the printing process from OS
             0 MiB allocation reported by mallinfo(arena+hblkhd)
           437 MiB available memory on the node where the printing process lives
------------------
     ethr =  5.39E-09,  avg # of iterations =  3.0

     negative rho (up, down):  3.967E-01 0.000E+00

     total cpu time spent up to now is       20.0 secs

     total energy              =      -2.20359314 Ry
     estimated scf accuracy    <       0.00000012 Ry

     iteration # 83     ecut=    10.00 Ry     beta= 0.70
     Davidson diagonalization with overlap

---- Real-time Memory Report at c_bands before calling an iterative solver
           133 MiB given to the printing process from OS
             0 MiB allocation reported by mallinfo(arena+hblkhd)
           437 MiB available memory on the node where the printing process lives
------------------
     ethr =  5.39E-09,  avg # of iterations =  2.0

     negative rho (up, down):  3.965E-01 0.000E+00

     total cpu time spent up to now is       20.2 secs

     total energy              =      -2.20362474 Ry
     estimated scf accuracy    <       0.00000048 Ry

     iteration # 84     ecut=    10.00 Ry     beta= 0.70
     Davidson diagonalization with overlap

---- Real-time Memory Report at c_bands before calling an iterative solver
           133 MiB given to the printing process from OS
             0 MiB allocation reported by mallinfo(arena+hblkhd)
           437 MiB available memory on the node where the printing process lives
------------------
     ethr =  5.39E-09,  avg # of iterations =  2.0

     negative rho (up, down):  3.972E-01 0.000E+00

     total cpu time spent up to now is       20.4 secs

     total energy              =      -2.20349695 Ry
     estimated scf accuracy    <       0.00000012 Ry

     iteration # 85     ecut=    10.00 Ry     beta= 0.70
     Davidson diagonalization with overlap

---- Real-time Memory Report at c_bands before calling an iterative solver
           133 MiB given to the printing process from OS
             0 MiB allocation reported by mallinfo(arena+hblkhd)
           437 MiB available memory on the node where the printing process lives
------------------
     ethr =  5.39E-09,  avg # of iterations =  4.0

     negative rho (up, down):  3.973E-01 0.000E+00

     total cpu time spent up to now is       20.6 secs

     total energy              =      -2.20351362 Ry
     estimated scf accuracy    <       0.00001011 Ry

     iteration # 86     ecut=    10.00 Ry     beta= 0.70
     Davidson diagonalization with overlap

---- Real-time Memory Report at c_bands before calling an iterative solver
           133 MiB given to the printing process from OS
             0 MiB allocation reported by mallinfo(arena+hblkhd)
           437 MiB available memory on the node where the printing process lives
------------------
     ethr =  5.39E-09,  avg # of iterations =  2.0

     negative rho (up, down):  3.970E-01 0.000E+00

     total cpu time spent up to now is       20.9 secs

     total energy              =      -2.20353149 Ry
     estimated scf accuracy    <       0.00001158 Ry

     iteration # 87     ecut=    10.00 Ry     beta= 0.70
     Davidson diagonalization with overlap

---- Real-time Memory Report at c_bands before calling an iterative solver
           133 MiB given to the printing process from OS
             0 MiB allocation reported by mallinfo(arena+hblkhd)
           437 MiB available memory on the node where the printing process lives
------------------
     ethr =  5.39E-09,  avg # of iterations =  4.0

     negative rho (up, down):  3.965E-01 0.000E+00

     total cpu time spent up to now is       21.1 secs

     total energy              =      -2.20362675 Ry
     estimated scf accuracy    <       0.00000361 Ry

     iteration # 88     ecut=    10.00 Ry     beta= 0.70
     Davidson diagonalization with overlap

---- Real-time Memory Report at c_bands before calling an iterative solver
           133 MiB given to the printing process from OS
             0 MiB allocation reported by mallinfo(arena+hblkhd)
           437 MiB available memory on the node where the printing process lives
------------------
     ethr =  5.39E-09,  avg # of iterations =  4.0

     negative rho (up, down):  3.965E-01 0.000E+00

     total cpu time spent up to now is       21.3 secs

     total energy              =      -2.20363464 Ry
     estimated scf accuracy    <       0.00000014 Ry

     iteration # 89     ecut=    10.00 Ry     beta= 0.70
     Davidson diagonalization with overlap

---- Real-time Memory Report at c_bands before calling an iterative solver
           133 MiB given to the printing process from OS
             0 MiB allocation reported by mallinfo(arena+hblkhd)
           437 MiB available memory on the node where the printing process lives
------------------
     ethr =  5.39E-09,  avg # of iterations =  2.0

     negative rho (up, down):  3.965E-01 0.000E+00

     total cpu time spent up to now is       21.5 secs

     total energy              =      -2.20363931 Ry
     estimated scf accuracy    <       0.00000014 Ry

     iteration # 90     ecut=    10.00 Ry     beta= 0.70
     Davidson diagonalization with overlap

---- Real-time Memory Report at c_bands before calling an iterative solver
           133 MiB given to the printing process from OS
             0 MiB allocation reported by mallinfo(arena+hblkhd)
           437 MiB available memory on the node where the printing process lives
------------------
     ethr =  5.39E-09,  avg # of iterations =  2.0

     negative rho (up, down):  3.967E-01 0.000E+00

     total cpu time spent up to now is       21.8 secs

     total energy              =      -2.20361428 Ry
     estimated scf accuracy    <       0.00000017 Ry

     iteration # 91     ecut=    10.00 Ry     beta= 0.70
     Davidson diagonalization with overlap

---- Real-time Memory Report at c_bands before calling an iterative solver
           133 MiB given to the printing process from OS
             0 MiB allocation reported by mallinfo(arena+hblkhd)
           437 MiB available memory on the node where the printing process lives
------------------
     ethr =  5.39E-09,  avg # of iterations =  3.0

     negative rho (up, down):  3.966E-01 0.000E+00

     total cpu time spent up to now is       22.0 secs

     total energy              =      -2.20361954 Ry
     estimated scf accuracy    <       0.00000042 Ry

     iteration # 92     ecut=    10.00 Ry     beta= 0.70
     Davidson diagonalization with overlap

---- Real-time Memory Report at c_bands before calling an iterative solver
           133 MiB given to the printing process from OS
             0 MiB allocation reported by mallinfo(arena+hblkhd)
           437 MiB available memory on the node where the printing process lives
------------------
     ethr =  5.39E-09,  avg # of iterations =  2.0

     negative rho (up, down):  3.967E-01 0.000E+00

     total cpu time spent up to now is       22.2 secs

     total energy              =      -2.20359318 Ry
     estimated scf accuracy    <       0.00000018 Ry

     iteration # 93     ecut=    10.00 Ry     beta= 0.70
     Davidson diagonalization with overlap

---- Real-time Memory Report at c_bands before calling an iterative solver
           133 MiB given to the printing process from OS
             0 MiB allocation reported by mallinfo(arena+hblkhd)
           437 MiB available memory on the node where the printing process lives
------------------
     ethr =  5.39E-09,  avg # of iterations =  2.0

     negative rho (up, down):  3.967E-01 0.000E+00

     total cpu time spent up to now is       22.4 secs

     total energy              =      -2.20358945 Ry
     estimated scf accuracy    <       0.00000041 Ry

     iteration # 94     ecut=    10.00 Ry     beta= 0.70
     Davidson diagonalization with overlap

---- Real-time Memory Report at c_bands before calling an iterative solver
           133 MiB given to the printing process from OS
             0 MiB allocation reported by mallinfo(arena+hblkhd)
           437 MiB available memory on the node where the printing process lives
------------------
     ethr =  5.39E-09,  avg # of iterations =  1.0

     negative rho (up, down):  3.967E-01 0.000E+00

     total cpu time spent up to now is       22.6 secs

     total energy              =      -2.20359238 Ry
     estimated scf accuracy    <       0.00000050 Ry

     iteration # 95     ecut=    10.00 Ry     beta= 0.70
     Davidson diagonalization with overlap

---- Real-time Memory Report at c_bands before calling an iterative solver
           133 MiB given to the printing process from OS
             0 MiB allocation reported by mallinfo(arena+hblkhd)
           437 MiB available memory on the node where the printing process lives
------------------
     ethr =  5.39E-09,  avg # of iterations =  1.0

     negative rho (up, down):  3.966E-01 0.000E+00

     total cpu time spent up to now is       22.8 secs

     total energy              =      -2.20360647 Ry
     estimated scf accuracy    <       0.00000046 Ry

     iteration # 96     ecut=    10.00 Ry     beta= 0.70
     Davidson diagonalization with overlap

---- Real-time Memory Report at c_bands before calling an iterative solver
           133 MiB given to the printing process from OS
             0 MiB allocation reported by mallinfo(arena+hblkhd)
           437 MiB available memory on the node where the printing process lives
------------------
     ethr =  5.39E-09,  avg # of iterations =  2.0

     negative rho (up, down):  3.966E-01 0.000E+00

     total cpu time spent up to now is       23.0 secs

     total energy              =      -2.20361614 Ry
     estimated scf accuracy    <       0.00000027 Ry

     iteration # 97     ecut=    10.00 Ry     beta= 0.70
     Davidson diagonalization with overlap

---- Real-time Memory Report at c_bands before calling an iterative solver
           133 MiB given to the printing process from OS
             0 MiB allocation reported by mallinfo(arena+hblkhd)
           437 MiB available memory on the node where the printing process lives
------------------
     ethr =  5.39E-09,  avg # of iterations =  2.0

     negative rho (up, down):  3.966E-01 0.000E+00

     total cpu time spent up to now is       23.3 secs

     total energy              =      -2.20360765 Ry
     estimated scf accuracy    <       0.00000016 Ry

     iteration # 98     ecut=    10.00 Ry     beta= 0.70
     Davidson diagonalization with overlap

---- Real-time Memory Report at c_bands before calling an iterative solver
           133 MiB given to the printing process from OS
             0 MiB allocation reported by mallinfo(arena+hblkhd)
           437 MiB available memory on the node where the printing process lives
------------------
     ethr =  5.39E-09,  avg # of iterations =  2.0

     negative rho (up, down):  3.964E-01 0.000E+00

     total cpu time spent up to now is       23.5 secs

     total energy              =      -2.20366786 Ry
     estimated scf accuracy    <       0.00000022 Ry

     iteration # 99     ecut=    10.00 Ry     beta= 0.70
     Davidson diagonalization with overlap

---- Real-time Memory Report at c_bands before calling an iterative solver
           133 MiB given to the printing process from OS
             0 MiB allocation reported by mallinfo(arena+hblkhd)
           437 MiB available memory on the node where the printing process lives
------------------
     ethr =  5.39E-09,  avg # of iterations =  3.0

     negative rho (up, down):  3.962E-01 0.000E+00

     total cpu time spent up to now is       23.7 secs

     total energy              =      -2.20372711 Ry
     estimated scf accuracy    <       0.00000019 Ry

     iteration #100     ecut=    10.00 Ry     beta= 0.70
     Davidson diagonalization with overlap

---- Real-time Memory Report at c_bands before calling an iterative solver
           133 MiB given to the printing process from OS
             0 MiB allocation reported by mallinfo(arena+hblkhd)
           437 MiB available memory on the node where the printing process lives
------------------
     ethr =  5.39E-09,  avg # of iterations =  5.0

     negative rho (up, down):  3.966E-01 0.000E+00

     total cpu time spent up to now is       23.9 secs

     total energy              =      -2.20348155 Ry
     estimated scf accuracy    <       0.00000854 Ry

     End of self-consistent calculation

     convergence NOT achieved after 100 iterations: stopping

     Writing config to output data dir ./.save/
     Message from routine punch:
     wavefunctions written to file

     init_run     :      0.21s CPU      0.22s WALL (       1 calls)
     electrons    :     23.43s CPU     23.51s WALL (       2 calls)
     update_pot   :      0.15s CPU      0.15s WALL (       1 calls)
     forces       :      0.05s CPU      0.05s WALL (       1 calls)

     Called by init_run:
     wfcinit      :      0.01s CPU      0.02s WALL (       1 calls)
     wfcinit:atom :      0.00s CPU      0.00s WALL (       1 calls)
     wfcinit:wfcr :      0.01s CPU      0.01s WALL (       1 calls)
     potinit      :      0.13s CPU      0.14s WALL (       1 calls)
     hinit0       :      0.01s CPU      0.01s WALL (       1 calls)

     Called by electrons:
     c_bands      :      4.40s CPU      4.43s WALL (     106 calls)
     sum_band     :      2.59s CPU      2.59s WALL (     106 calls)
     v_of_rho     :     12.92s CPU     12.94s WALL (     108 calls)
     v_h          :      0.69s CPU      0.69s WALL (     108 calls)
     v_xc         :     12.23s CPU     12.25s WALL (     108 calls)
     newd         :      0.87s CPU      0.88s WALL (     108 calls)
     mix_rho      :      2.64s CPU      2.65s WALL (     106 calls)

     Called by c_bands:
     init_us_2    :      0.08s CPU      0.08s WALL (     213 calls)
     init_us_2:cp :      0.08s CPU      0.08s WALL (     213 calls)
     cegterg      :      4.34s CPU      4.37s WALL (     106 calls)

     Called by sum_band:
     sum_band:wei :      0.00s CPU      0.00s WALL (     106 calls)
     sum_band:loo :      0.71s CPU      0.71s WALL (     106 calls)
     sum_band:buf :      0.00s CPU      0.00s WALL (     106 calls)
     sum_band:ini :      0.04s CPU      0.04s WALL (     106 calls)
     sum_band:cal :      0.01s CPU      0.01s WALL (     106 calls)
     sum_band:bec :      0.00s CPU      0.00s WALL (     106 calls)
     addusdens    :      0.24s CPU      0.24s WALL (     106 calls)
     addusd:skk   :      0.07s CPU      0.07s WALL (     106 calls)
     addusd:dgemm :      0.05s CPU      0.05s WALL (     106 calls)
     addusd:qvan2 :      0.06s CPU      0.06s WALL (     106 calls)

     Called by *egterg:
     cdiaghg      :      0.01s CPU      0.01s WALL (     406 calls)
     cegterg:over :      0.06s CPU      0.06s WALL (     301 calls)
     cegterg:upda :      0.04s CPU      0.04s WALL (     301 calls)
     cegterg:last :      0.08s CPU      0.08s WALL (     247 calls)
     h_psi        :      4.06s CPU      4.09s WALL (     408 calls)
     s_psi        :      0.02s CPU      0.02s WALL (     408 calls)
     g_psi        :      0.02s CPU      0.02s WALL (     301 calls)

     Called by h_psi:
     h_psi:calbec :      0.03s CPU      0.03s WALL (     408 calls)
     vloc_psi     :      3.99s CPU      4.01s WALL (     408 calls)
     add_vuspsi   :      0.03s CPU      0.03s WALL (     408 calls)

     General routines
     calbec       :      0.04s CPU      0.04s WALL (     518 calls)
     fft          :      6.04s CPU      6.05s WALL (    1191 calls)
     ffts         :      0.54s CPU      0.54s WALL (     106 calls)
     fftw         :      4.21s CPU      4.23s WALL (    1512 calls)
     davcio       :      0.00s CPU      0.01s WALL (      19 calls)


     PWSCF        :     23.89s CPU     23.98s WALL


   This run was terminated on:   2:58:29  28Feb2022            

=------------------------------------------------------------------------------=
   JOB DONE.
=------------------------------------------------------------------------------=
