
     Program PWSCF v.7.0 starts on 28Feb2022 at  3:46:23 

     This program is part of the open-source Quantum ESPRESSO suite
     for quantum simulation of materials; please cite
         "P. Giannozzi et al., J. Phys.:Condens. Matter 21 395502 (2009);
         "P. Giannozzi et al., J. Phys.:Condens. Matter 29 465901 (2017);
         "P. Giannozzi et al., J. Chem. Phys. 152 154105 (2020);
          URL http://www.quantum-espresso.org", 
     in publications or presentations arising from this work. More details at
     http://www.quantum-espresso.org/quote

     Serial version
     544 MiB available memory on the printing compute node when the environment starts

     Waiting for input...
     Reading input from standard input

     Current dimensions of program PWSCF are:
     Max number of different atomic species (ntypx) = 10
     Max number of k-points (npk) =  40000
     Max angular momentum in pseudopotentials (lmaxx) =  4

     File ./.update deleted, as requested

     File ./.bfgs deleted, as requested

    ============================================================
    |  pseudopotential report for atomic species:  1           |
    |        pseudo potential version   7   3   2              |
    ------------------------------------------------------------
    |  hydrogen            PBE                  exchange-corr  |
    |  z =   1.    zv( 1) =   1.    exfact =   5.00000         |
    |  ifpcor =  0           atomic energy =  -0.91772 Ry      |
    |  index    orbital      occupation    energy              |
    |    1        100           1.00       -0.48               |
    |  rinner =  0.5000                                        |
    |    new generation scheme:                                |
    |    nbeta =  1     kkbeta =  271     rcloc =    0.6000    |
    |    ibeta    l     epsilon   rcut                         |
    |      1       0      -0.48   0.80                         |
    ============================================================

     IMPORTANT: XC functional enforced from input :
     Exchange-correlation= BLYP
                           (   1   3   1   3   0   0   0)
     Any further DFT definition will be discarded
     Please, verify this is what you really want


     G-vector sticks info
     --------------------
     sticks:   dense  smooth     PW     G-vecs:    dense   smooth      PW
     Sum        7153    7153   1925               455863   455863   63461

     Using Slab Decomposition



     bravais-lattice index     =            1
     lattice parameter (alat)  =      30.0000  a.u.
     unit-cell volume          =   27000.0000 (a.u.)^3
     number of atoms/cell      =            2
     number of atomic types    =            1
     number of electrons       =         2.00
     number of Kohn-Sham states=            2
     kinetic-energy cutoff     =      25.0000  Ry
     charge density cutoff     =     100.0000  Ry
     scf convergence threshold =      1.0E-08
     mixing beta               =       0.7000
     number of iterations used =            8  plain     mixing
     energy convergence thresh.=      1.0E-04
     force convergence thresh. =      1.0E-03
     Exchange-correlation= BLYP
                           (   1   3   1   3   0   0   0)
     nstep                     =           50


     celldm(1)=  30.000000  celldm(2)=   0.000000  celldm(3)=   0.000000
     celldm(4)=   0.000000  celldm(5)=   0.000000  celldm(6)=   0.000000

     crystal axes: (cart. coord. in units of alat)
               a(1) = (   1.000000   0.000000   0.000000 )  
               a(2) = (   0.000000   1.000000   0.000000 )  
               a(3) = (   0.000000   0.000000   1.000000 )  

     reciprocal axes: (cart. coord. in units 2 pi/alat)
               b(1) = (  1.000000  0.000000  0.000000 )  
               b(2) = (  0.000000  1.000000  0.000000 )  
               b(3) = (  0.000000  0.000000  1.000000 )  


     PseudoPot. # 1 for hy read from file:
     /root/q-e/pseudo/H_US.van
     MD5 check sum: a9a9bfe98ff56cf4de197d71fc46bb44
     Pseudo is Ultrasoft, Zval =  1.0
     Generated by Vanderbilt code, v. 7.3.2
     Using radial grid of  399 points,  1 beta functions with: 
                l(1) =   0
     Q(r) pseudized with  8 coefficients,  rinner =    0.500

     atomic species   valence    mass     pseudopotential
        H              1.00     1.00784     hy( 1.00)

      8 Sym. Ops. (no inversion) found


                                    s                        frac. trans.

      isym =  1     identity                                     

 cryst.   s( 1) = (     1          0          0      )
                  (     0          1          0      )
                  (     0          0          1      )

 cart.    s( 1) = (  1.0000000  0.0000000  0.0000000 )
                  (  0.0000000  1.0000000  0.0000000 )
                  (  0.0000000  0.0000000  1.0000000 )


      isym =  2     180 deg rotation - cart. axis [1,0,0]        

 cryst.   s( 2) = (     1          0          0      )
                  (     0         -1          0      )
                  (     0          0         -1      )

 cart.    s( 2) = (  1.0000000  0.0000000  0.0000000 )
                  (  0.0000000 -1.0000000  0.0000000 )
                  (  0.0000000  0.0000000 -1.0000000 )


      isym =  3      90 deg rotation - cart. axis [-1,0,0]       

 cryst.   s( 3) = (     1          0          0      )
                  (     0          0         -1      )
                  (     0          1          0      )

 cart.    s( 3) = (  1.0000000  0.0000000  0.0000000 )
                  (  0.0000000  0.0000000  1.0000000 )
                  (  0.0000000 -1.0000000  0.0000000 )


      isym =  4      90 deg rotation - cart. axis [1,0,0]        

 cryst.   s( 4) = (     1          0          0      )
                  (     0          0          1      )
                  (     0         -1          0      )

 cart.    s( 4) = (  1.0000000  0.0000000  0.0000000 )
                  (  0.0000000  0.0000000 -1.0000000 )
                  (  0.0000000  1.0000000  0.0000000 )


      isym =  5     inv. 180 deg rotation - cart. axis [0,0,1]   

 cryst.   s( 5) = (     1          0          0      )
                  (     0          1          0      )
                  (     0          0         -1      )

 cart.    s( 5) = (  1.0000000  0.0000000  0.0000000 )
                  (  0.0000000  1.0000000  0.0000000 )
                  (  0.0000000  0.0000000 -1.0000000 )


      isym =  6     inv. 180 deg rotation - cart. axis [0,1,0]   

 cryst.   s( 6) = (     1          0          0      )
                  (     0         -1          0      )
                  (     0          0          1      )

 cart.    s( 6) = (  1.0000000  0.0000000  0.0000000 )
                  (  0.0000000 -1.0000000  0.0000000 )
                  (  0.0000000  0.0000000  1.0000000 )


      isym =  7     inv. 180 deg rotation - cart. axis [0,1,1]   

 cryst.   s( 7) = (     1          0          0      )
                  (     0          0         -1      )
                  (     0         -1          0      )

 cart.    s( 7) = (  1.0000000  0.0000000  0.0000000 )
                  (  0.0000000  0.0000000 -1.0000000 )
                  (  0.0000000 -1.0000000  0.0000000 )


      isym =  8     inv. 180 deg rotation - cart. axis [0,1,-1]  

 cryst.   s( 8) = (     1          0          0      )
                  (     0          0          1      )
                  (     0          1          0      )

 cart.    s( 8) = (  1.0000000  0.0000000  0.0000000 )
                  (  0.0000000  0.0000000  1.0000000 )
                  (  0.0000000  1.0000000  0.0000000 )


     point group C_4v (4mm) 
     there are  5 classes
     the character table:

       E     2C4   C2    2s_v  2s_d 
A_1    1.00  1.00  1.00  1.00  1.00
A_2    1.00  1.00  1.00 -1.00 -1.00
B_1    1.00 -1.00  1.00  1.00 -1.00
B_2    1.00 -1.00  1.00 -1.00  1.00
E      2.00  0.00 -2.00  0.00  0.00

     the symmetry operations in each class and the name of the first element:

     E        1
          identity                                               
     2C4      3    4
           90 deg rotation - cart. axis [-1,0,0]                 
     C2       2
          180 deg rotation - cart. axis [1,0,0]                  
     2s_v     5    6
          inv. 180 deg rotation - cart. axis [0,0,1]             
     2s_d     7    8
          inv. 180 deg rotation - cart. axis [0,1,1]             

   Cartesian axes

     site n.     atom                  positions (alat units)
         1           H   tau(   1) = (   0.0000000   0.0000000   0.0000000  )
         2           H   tau(   2) = (   0.0478731   0.0000000   0.0000000  )

   Crystallographic axes

     site n.     atom                  positions (cryst. coord.)
         1           H   tau(   1) = (  0.0000000  0.0000000  0.0000000  )
         2           H   tau(   2) = (  0.0478731  0.0000000  0.0000000  )

     number of k points=     1
                       cart. coord. in units 2pi/alat
        k(    1) = (  -0.5000000  -0.5000000  -0.5000000), wk =   2.0000000

                       cryst. coord.
        k(    1) = (  -0.5000000  -0.5000000  -0.5000000), wk =   2.0000000

     Dense  grid:   455863 G-vectors     FFT dimensions: (  96,  96,  96)

     Dynamical RAM for                 wfc:       1.74 MB

     Dynamical RAM for     wfc (w. buffer):       1.74 MB

     Dynamical RAM for           str. fact:       6.96 MB

     Dynamical RAM for           local pot:       0.00 MB

     Dynamical RAM for          nlocal pot:       1.74 MB

     Dynamical RAM for                qrad:       0.01 MB

     Dynamical RAM for          rho,v,vnew:      41.12 MB

     Dynamical RAM for               rhoin:      13.71 MB

     Dynamical RAM for            rho*nmix:     111.29 MB

     Dynamical RAM for           G-vectors:      29.56 MB

     Dynamical RAM for          h,s,v(r/c):       0.00 MB

     Dynamical RAM for          <psi|beta>:       0.00 MB

     Dynamical RAM for                 psi:       3.48 MB

     Dynamical RAM for                hpsi:       3.48 MB

     Dynamical RAM for                spsi:       3.48 MB

     Dynamical RAM for      wfcinit/wfcrot:       3.48 MB

     Dynamical RAM for           addusdens:      41.74 MB

     Dynamical RAM for          addusforce:      59.13 MB

     Estimated static dynamical RAM per process >     142.49 MB

     Estimated max dynamical RAM per process >     312.91 MB

     Initial potential from superposition of free atoms

     starting charge       2.0000, renormalised to       2.0000

     negative rho (up, down):  3.079E-02 0.000E+00
     Starting wfcs are    2 randomized atomic wfcs

     total cpu time spent up to now is        0.8 secs

     Self-consistent Calculation

     iteration #  1     ecut=    25.00 Ry     beta= 0.70
     Davidson diagonalization with overlap

---- Real-time Memory Report at c_bands before calling an iterative solver
           247 MiB given to the printing process from OS
             0 MiB allocation reported by mallinfo(arena+hblkhd)
           375 MiB available memory on the node where the printing process lives
------------------
     ethr =  1.00E-02,  avg # of iterations =  5.0

     negative rho (up, down):  4.243E-02 0.000E+00

     total cpu time spent up to now is        1.7 secs

     total energy              =      -2.31092584 Ry
     estimated scf accuracy    <       0.11269481 Ry

     iteration #  2     ecut=    25.00 Ry     beta= 0.70
     Davidson diagonalization with overlap

---- Real-time Memory Report at c_bands before calling an iterative solver
           309 MiB given to the printing process from OS
             0 MiB allocation reported by mallinfo(arena+hblkhd)
           249 MiB available memory on the node where the printing process lives
------------------
     ethr =  5.63E-03,  avg # of iterations =  1.0

     negative rho (up, down):  4.478E-02 0.000E+00

     total cpu time spent up to now is        2.4 secs

     total energy              =      -2.31740985 Ry
     estimated scf accuracy    <       0.00118278 Ry

     iteration #  3     ecut=    25.00 Ry     beta= 0.70
     Davidson diagonalization with overlap

---- Real-time Memory Report at c_bands before calling an iterative solver
           323 MiB given to the printing process from OS
             0 MiB allocation reported by mallinfo(arena+hblkhd)
           235 MiB available memory on the node where the printing process lives
------------------
     ethr =  5.91E-05,  avg # of iterations =  9.0

     negative rho (up, down):  4.454E-02 0.000E+00

     total cpu time spent up to now is        3.4 secs

     total energy              =      -2.31792122 Ry
     estimated scf accuracy    <       0.00001435 Ry

     iteration #  4     ecut=    25.00 Ry     beta= 0.70
     Davidson diagonalization with overlap

---- Real-time Memory Report at c_bands before calling an iterative solver
           337 MiB given to the printing process from OS
             0 MiB allocation reported by mallinfo(arena+hblkhd)
           221 MiB available memory on the node where the printing process lives
------------------
     ethr =  7.17E-07,  avg # of iterations =  5.0

     negative rho (up, down):  4.454E-02 0.000E+00

     total cpu time spent up to now is        4.3 secs

     total energy              =      -2.31792620 Ry
     estimated scf accuracy    <       0.00000033 Ry

     iteration #  5     ecut=    25.00 Ry     beta= 0.70
     Davidson diagonalization with overlap

---- Real-time Memory Report at c_bands before calling an iterative solver
           351 MiB given to the printing process from OS
             0 MiB allocation reported by mallinfo(arena+hblkhd)
           208 MiB available memory on the node where the printing process lives
------------------
     ethr =  1.66E-08,  avg # of iterations =  2.0

     negative rho (up, down):  4.454E-02 0.000E+00

     total cpu time spent up to now is        5.0 secs

     total energy              =      -2.31791733 Ry
     estimated scf accuracy    <       0.00000001 Ry

     iteration #  6     ecut=    25.00 Ry     beta= 0.70
     Davidson diagonalization with overlap

---- Real-time Memory Report at c_bands before calling an iterative solver
           365 MiB given to the printing process from OS
             0 MiB allocation reported by mallinfo(arena+hblkhd)
           194 MiB available memory on the node where the printing process lives
------------------
     ethr =  6.99E-10,  avg # of iterations =  3.0

     negative rho (up, down):  4.454E-02 0.000E+00

     total cpu time spent up to now is        5.8 secs

     End of self-consistent calculation

          k =-0.5000-0.5000-0.5000 ( 57016 PWs)   bands (ev):

   -10.3356  -1.1091

     occupation numbers 
     1.0000   0.0000

     highest occupied, lowest unoccupied level (ev):   -10.3356   -1.1091

!    total energy              =      -2.31792183 Ry
     estimated scf accuracy    <          4.6E-10 Ry

     The total energy is the sum of the following terms:
     one-electron contribution =      -4.18118518 Ry
     hartree contribution      =       2.22581354 Ry
     xc contribution           =      -1.37713653 Ry
     ewald contribution        =       1.01458634 Ry

     convergence has been achieved in   6 iterations

     Forces acting on atoms (cartesian axes, Ry/au):

     atom    1 type  1   force =     0.02118038    0.00000000    0.00000000
     atom    2 type  1   force =    -0.02118038    0.00000000    0.00000000
     The non-local contrib.  to forces
     atom    1 type  1   force =     0.10866188    0.00000000    0.00000000
     atom    2 type  1   force =    -0.10715705    0.00000000    0.00000000
     The ionic contribution  to forces
     atom    1 type  1   force =    -0.96917919   -0.00000000   -0.00000000
     atom    2 type  1   force =     0.96917919   -0.00000000   -0.00000000
     The local contribution  to forces
     atom    1 type  1   force =     0.88252062    0.00000000    0.00000000
     atom    2 type  1   force =    -0.88231872    0.00000000    0.00000000
     The core correction contribution to forces
     atom    1 type  1   force =     0.00000000    0.00000000    0.00000000
     atom    2 type  1   force =     0.00000000    0.00000000    0.00000000
     The Hubbard contrib.    to forces
     atom    1 type  1   force =     0.00000000    0.00000000    0.00000000
     atom    2 type  1   force =     0.00000000    0.00000000    0.00000000
     The SCF correction term to forces
     atom    1 type  1   force =     0.00006229    0.00000000    0.00000000
     atom    2 type  1   force =     0.00000141    0.00000000    0.00000000

     Total force =     0.029954     Total SCF correction =     0.000062

     BFGS Geometry Optimization
     Energy error            =      0.0E+00 Ry
     Gradient error          =      2.1E-02 Ry/Bohr

     number of scf cycles    =   1
     number of bfgs steps    =   0

     energy             new  =      -2.3179218292 Ry

     new trust radius        =       0.0211803834 bohr
     new conv_thr            =       0.0000000100 Ry


ATOMIC_POSITIONS (angstrom)
H             0.0112081762        0.0000000000        0.0000000000
H             0.7487918238        0.0000000000        0.0000000000



     Writing config-only to output data dir ./.save/
     NEW-OLD atomic charge density approx. for the potential

     negative rho (up, down):  4.451E-02 0.000E+00

     total cpu time spent up to now is        6.6 secs

     Self-consistent Calculation

     iteration #  1     ecut=    25.00 Ry     beta= 0.70
     Davidson diagonalization with overlap

---- Real-time Memory Report at c_bands before calling an iterative solver
           372 MiB given to the printing process from OS
             0 MiB allocation reported by mallinfo(arena+hblkhd)
           364 MiB available memory on the node where the printing process lives
------------------
     ethr =  1.00E-06,  avg # of iterations =  3.0

     negative rho (up, down):  4.550E-02 0.000E+00

     total cpu time spent up to now is        7.4 secs

     total energy              =      -2.31738327 Ry
     estimated scf accuracy    <       0.00014527 Ry

     iteration #  2     ecut=    25.00 Ry     beta= 0.70
     Davidson diagonalization with overlap

---- Real-time Memory Report at c_bands before calling an iterative solver
           372 MiB given to the printing process from OS
             0 MiB allocation reported by mallinfo(arena+hblkhd)
           241 MiB available memory on the node where the printing process lives
------------------
     ethr =  7.26E-06,  avg # of iterations =  1.0

     negative rho (up, down):  4.572E-02 0.000E+00

     total cpu time spent up to now is        8.1 secs

     total energy              =      -2.31724233 Ry
     estimated scf accuracy    <       0.00000174 Ry

     iteration #  3     ecut=    25.00 Ry     beta= 0.70
     Davidson diagonalization with overlap

---- Real-time Memory Report at c_bands before calling an iterative solver
           372 MiB given to the printing process from OS
             0 MiB allocation reported by mallinfo(arena+hblkhd)
           227 MiB available memory on the node where the printing process lives
------------------
     ethr =  8.69E-08,  avg # of iterations =  2.0

     negative rho (up, down):  4.575E-02 0.000E+00

     total cpu time spent up to now is        8.9 secs

     total energy              =      -2.31722273 Ry
     estimated scf accuracy    <       0.00000008 Ry

     iteration #  4     ecut=    25.00 Ry     beta= 0.70
     Davidson diagonalization with overlap

---- Real-time Memory Report at c_bands before calling an iterative solver
           372 MiB given to the printing process from OS
             0 MiB allocation reported by mallinfo(arena+hblkhd)
           213 MiB available memory on the node where the printing process lives
------------------
     ethr =  4.10E-09,  avg # of iterations =  2.0

     negative rho (up, down):  4.576E-02 0.000E+00

     total cpu time spent up to now is        9.6 secs

     End of self-consistent calculation

          k =-0.5000-0.5000-0.5000 ( 57016 PWs)   bands (ev):

   -10.4474  -1.1268

     occupation numbers 
     1.0000   0.0000

     highest occupied, lowest unoccupied level (ev):   -10.4474   -1.1268

!    total energy              =      -2.31721221 Ry
     estimated scf accuracy    <          4.4E-09 Ry

     The total energy is the sum of the following terms:
     one-electron contribution =      -4.23890039 Ry
     hartree contribution      =       2.25625821 Ry
     xc contribution           =      -1.39146014 Ry
     ewald contribution        =       1.05689011 Ry

     convergence has been achieved in   4 iterations

     Forces acting on atoms (cartesian axes, Ry/au):

     atom    1 type  1   force =    -0.01494903    0.00000000    0.00000000
     atom    2 type  1   force =     0.01494903    0.00000000    0.00000000
     The non-local contrib.  to forces
     atom    1 type  1   force =     0.10943662    0.00000000    0.00000000
     atom    2 type  1   force =    -0.10728868    0.00000000    0.00000000
     The ionic contribution  to forces
     atom    1 type  1   force =    -1.02902528   -0.00000000   -0.00000000
     atom    2 type  1   force =     1.02902528   -0.00000000   -0.00000000
     The local contribution  to forces
     atom    1 type  1   force =     0.90585354    0.00000000    0.00000000
     atom    2 type  1   force =    -0.90565509    0.00000000    0.00000000
     The core correction contribution to forces
     atom    1 type  1   force =     0.00000000    0.00000000    0.00000000
     atom    2 type  1   force =     0.00000000    0.00000000    0.00000000
     The Hubbard contrib.    to forces
     atom    1 type  1   force =     0.00000000    0.00000000    0.00000000
     atom    2 type  1   force =     0.00000000    0.00000000    0.00000000
     The SCF correction term to forces
     atom    1 type  1   force =    -0.00001913   -0.00000000    0.00000000
     atom    2 type  1   force =     0.00006228    0.00000000    0.00000000

     Total force =     0.021141     Total SCF correction =     0.000065
     Energy error            =      7.1E-04 Ry
     Gradient error          =      1.5E-02 Ry/Bohr

     number of scf cycles    =   2
     number of bfgs steps    =   1

     energy             old  =      -2.3179218292 Ry
     energy             new  =      -2.3172122117 Ry

     CASE: energy            _new > energy            _old

     new trust radius        =       0.0059133043 bohr
     new conv_thr            =       0.0000000100 Ry


ATOMIC_POSITIONS (angstrom)
H             0.0031291859        0.0000000000        0.0000000000
H             0.7568708141        0.0000000000        0.0000000000



     Writing config-only to output data dir ./.save/
     NEW-OLD atomic charge density approx. for the potential

     negative rho (up, down):  4.574E-02 0.000E+00

     total cpu time spent up to now is       10.4 secs

     Self-consistent Calculation

     iteration #  1     ecut=    25.00 Ry     beta= 0.70
     Davidson diagonalization with overlap

---- Real-time Memory Report at c_bands before calling an iterative solver
           372 MiB given to the printing process from OS
             0 MiB allocation reported by mallinfo(arena+hblkhd)
           364 MiB available memory on the node where the printing process lives
------------------
     ethr =  1.00E-06,  avg # of iterations =  3.0

     negative rho (up, down):  4.507E-02 0.000E+00

     total cpu time spent up to now is       11.3 secs

     total energy              =      -2.31773170 Ry
     estimated scf accuracy    <       0.00007573 Ry

     iteration #  2     ecut=    25.00 Ry     beta= 0.70
     Davidson diagonalization with overlap

---- Real-time Memory Report at c_bands before calling an iterative solver
           372 MiB given to the printing process from OS
             0 MiB allocation reported by mallinfo(arena+hblkhd)
           241 MiB available memory on the node where the printing process lives
------------------
     ethr =  3.79E-06,  avg # of iterations =  1.0

     negative rho (up, down):  4.492E-02 0.000E+00

     total cpu time spent up to now is       12.0 secs

     total energy              =      -2.31784573 Ry
     estimated scf accuracy    <       0.00000099 Ry

     iteration #  3     ecut=    25.00 Ry     beta= 0.70
     Davidson diagonalization with overlap

---- Real-time Memory Report at c_bands before calling an iterative solver
           372 MiB given to the printing process from OS
             0 MiB allocation reported by mallinfo(arena+hblkhd)
           227 MiB available memory on the node where the printing process lives
------------------
     ethr =  4.93E-08,  avg # of iterations =  2.0

     negative rho (up, down):  4.490E-02 0.000E+00

     total cpu time spent up to now is       12.7 secs

     total energy              =      -2.31785958 Ry
     estimated scf accuracy    <       0.00000004 Ry

     iteration #  4     ecut=    25.00 Ry     beta= 0.70
     Davidson diagonalization with overlap

---- Real-time Memory Report at c_bands before calling an iterative solver
           372 MiB given to the printing process from OS
             0 MiB allocation reported by mallinfo(arena+hblkhd)
           213 MiB available memory on the node where the printing process lives
------------------
     ethr =  2.05E-09,  avg # of iterations =  2.0

     negative rho (up, down):  4.490E-02 0.000E+00

     total cpu time spent up to now is       13.4 secs

     End of self-consistent calculation

          k =-0.5000-0.5000-0.5000 ( 57016 PWs)   bands (ev):

   -10.3664  -1.1207

     occupation numbers 
     1.0000   0.0000

     highest occupied, lowest unoccupied level (ev):   -10.3664   -1.1207

!    total energy              =      -2.31786637 Ry
     estimated scf accuracy    <          2.2E-09 Ry

     The total energy is the sum of the following terms:
     one-electron contribution =      -4.19711219 Ry
     hartree contribution      =       2.23417392 Ry
     xc contribution           =      -1.38107179 Ry
     ewald contribution        =       1.02614368 Ry

     convergence has been achieved in   4 iterations

     Forces acting on atoms (cartesian axes, Ry/au):

     atom    1 type  1   force =     0.01162532    0.00000000    0.00000000
     atom    2 type  1   force =    -0.01162532    0.00000000    0.00000000
     The non-local contrib.  to forces
     atom    1 type  1   force =     0.10870000    0.00000000    0.00000000
     atom    2 type  1   force =    -0.10744065    0.00000000    0.00000000
     The ionic contribution  to forces
     atom    1 type  1   force =    -0.98535156   -0.00000000   -0.00000000
     atom    2 type  1   force =     0.98535156   -0.00000000   -0.00000000
     The local contribution  to forces
     atom    1 type  1   force =     0.88897804    0.00000000    0.00000000
     atom    2 type  1   force =    -0.88877127    0.00000000    0.00000000
     The core correction contribution to forces
     atom    1 type  1   force =     0.00000000    0.00000000    0.00000000
     atom    2 type  1   force =     0.00000000    0.00000000    0.00000000
     The Hubbard contrib.    to forces
     atom    1 type  1   force =     0.00000000    0.00000000    0.00000000
     atom    2 type  1   force =     0.00000000    0.00000000    0.00000000
     The SCF correction term to forces
     atom    1 type  1   force =    -0.00002769   -0.00000000    0.00000000
     atom    2 type  1   force =    -0.00009148   -0.00000000    0.00000000

     Total force =     0.016441     Total SCF correction =     0.000096
     Energy error            =      5.5E-05 Ry
     Gradient error          =      1.2E-02 Ry/Bohr

     number of scf cycles    =   3
     number of bfgs steps    =   1

     energy             old  =      -2.3179218292 Ry
     energy             new  =      -2.3178663693 Ry

     CASE: energy            _new > energy            _old

     new trust radius        =       0.0024207003 bohr
     new conv_thr            =       0.0000000100 Ry


ATOMIC_POSITIONS (angstrom)
H             0.0012809794        0.0000000000        0.0000000000
H             0.7587190206        0.0000000000        0.0000000000



     Writing config-only to output data dir ./.save/
     NEW-OLD atomic charge density approx. for the potential

     negative rho (up, down):  4.488E-02 0.000E+00

     total cpu time spent up to now is       14.2 secs

     Self-consistent Calculation

     iteration #  1     ecut=    25.00 Ry     beta= 0.70
     Davidson diagonalization with overlap

---- Real-time Memory Report at c_bands before calling an iterative solver
           372 MiB given to the printing process from OS
             0 MiB allocation reported by mallinfo(arena+hblkhd)
           364 MiB available memory on the node where the printing process lives
------------------
     ethr =  1.00E-06,  avg # of iterations =  2.0

     negative rho (up, down):  4.473E-02 0.000E+00

     total cpu time spent up to now is       15.1 secs

     total energy              =      -2.31787033 Ry
     estimated scf accuracy    <       0.00000347 Ry

     iteration #  2     ecut=    25.00 Ry     beta= 0.70
     Davidson diagonalization with overlap

---- Real-time Memory Report at c_bands before calling an iterative solver
           372 MiB given to the printing process from OS
             0 MiB allocation reported by mallinfo(arena+hblkhd)
           241 MiB available memory on the node where the printing process lives
------------------
     ethr =  1.74E-07,  avg # of iterations =  1.0

     negative rho (up, down):  4.469E-02 0.000E+00

     total cpu time spent up to now is       15.8 secs

     total energy              =      -2.31790171 Ry
     estimated scf accuracy    <       0.00000011 Ry

     iteration #  3     ecut=    25.00 Ry     beta= 0.70
     Davidson diagonalization with overlap

---- Real-time Memory Report at c_bands before calling an iterative solver
           372 MiB given to the printing process from OS
             0 MiB allocation reported by mallinfo(arena+hblkhd)
           226 MiB available memory on the node where the printing process lives
------------------
     ethr =  5.42E-09,  avg # of iterations =  3.0

     negative rho (up, down):  4.470E-02 0.000E+00

     total cpu time spent up to now is       16.7 secs

     total energy              =      -2.31789465 Ry
     estimated scf accuracy    <       0.00000002 Ry

     iteration #  4     ecut=    25.00 Ry     beta= 0.70
     Davidson diagonalization with overlap

---- Real-time Memory Report at c_bands before calling an iterative solver
           372 MiB given to the printing process from OS
             0 MiB allocation reported by mallinfo(arena+hblkhd)
           212 MiB available memory on the node where the printing process lives
------------------
     ethr =  1.08E-09,  avg # of iterations =  3.0

     negative rho (up, down):  4.469E-02 0.000E+00

     total cpu time spent up to now is       17.5 secs

     total energy              =      -2.31790068 Ry
     estimated scf accuracy    <       0.00000002 Ry

     iteration #  5     ecut=    25.00 Ry     beta= 0.70
     Davidson diagonalization with overlap

---- Real-time Memory Report at c_bands before calling an iterative solver
           372 MiB given to the printing process from OS
             0 MiB allocation reported by mallinfo(arena+hblkhd)
           199 MiB available memory on the node where the printing process lives
------------------
     ethr =  8.69E-10,  avg # of iterations =  2.0

     negative rho (up, down):  4.469E-02 0.000E+00

     total cpu time spent up to now is       18.2 secs

     End of self-consistent calculation

          k =-0.5000-0.5000-0.5000 ( 57016 PWs)   bands (ev):

   -10.3480  -1.1108

     occupation numbers 
     1.0000   0.0000

     highest occupied, lowest unoccupied level (ev):   -10.3480   -1.1108

!    total energy              =      -2.31789966 Ry
     estimated scf accuracy    <          1.3E-09 Ry

     The total energy is the sum of the following terms:
     one-electron contribution =      -4.18770368 Ry
     hartree contribution      =       2.22925035 Ry
     xc contribution           =      -1.37874074 Ry
     ewald contribution        =       1.01929441 Ry

     convergence has been achieved in   5 iterations

     Forces acting on atoms (cartesian axes, Ry/au):

     atom    1 type  1   force =     0.01720055    0.00000000    0.00000000
     atom    2 type  1   force =    -0.01720055    0.00000000    0.00000000
     The non-local contrib.  to forces
     atom    1 type  1   force =     0.10863983    0.00000000    0.00000000
     atom    2 type  1   force =    -0.10718366    0.00000000    0.00000000
     The ionic contribution  to forces
     atom    1 type  1   force =    -0.97575115    0.00000000   -0.00000000
     atom    2 type  1   force =     0.97575115    0.00000000   -0.00000000
     The local contribution  to forces
     atom    1 type  1   force =     0.88516598    0.00000000    0.00000000
     atom    2 type  1   force =    -0.88495648    0.00000000    0.00000000
     The core correction contribution to forces
     atom    1 type  1   force =     0.00000000    0.00000000    0.00000000
     atom    2 type  1   force =     0.00000000    0.00000000    0.00000000
     The Hubbard contrib.    to forces
     atom    1 type  1   force =     0.00000000    0.00000000    0.00000000
     atom    2 type  1   force =     0.00000000    0.00000000    0.00000000
     The SCF correction term to forces
     atom    1 type  1   force =     0.00002627   -0.00000000   -0.00000000
     atom    2 type  1   force =     0.00006882   -0.00000000    0.00000000

     Total force =     0.024325     Total SCF correction =     0.000074
     Energy error            =      2.2E-05 Ry
     Gradient error          =      1.7E-02 Ry/Bohr

     number of scf cycles    =   4
     number of bfgs steps    =   1

     energy             old  =      -2.3179218292 Ry
     energy             new  =      -2.3178996601 Ry

     CASE: energy            _new > energy            _old

     new trust radius        =       0.0009951947 bohr
     new conv_thr            =       0.0000000100 Ry


ATOMIC_POSITIONS (angstrom)
H             0.0005266344        0.0000000000        0.0000000000
H             0.7594733656        0.0000000000        0.0000000000



     Writing config-only to output data dir ./.save/
     NEW-OLD atomic charge density approx. for the potential

     negative rho (up, down):  4.468E-02 0.000E+00

     total cpu time spent up to now is       19.0 secs

     Self-consistent Calculation

     iteration #  1     ecut=    25.00 Ry     beta= 0.70
     Davidson diagonalization with overlap

---- Real-time Memory Report at c_bands before calling an iterative solver
           372 MiB given to the printing process from OS
             0 MiB allocation reported by mallinfo(arena+hblkhd)
           364 MiB available memory on the node where the printing process lives
------------------
     ethr =  1.00E-06,  avg # of iterations =  2.0

     Threshold (ethr) on eigenvalues was too large:
     Diagonalizing with lowered threshold

     Davidson diagonalization with overlap

---- Real-time Memory Report at c_bands before calling an iterative solver
           372 MiB given to the printing process from OS
             0 MiB allocation reported by mallinfo(arena+hblkhd)
           366 MiB available memory on the node where the printing process lives
------------------
     ethr =  2.66E-08,  avg # of iterations =  1.0

     negative rho (up, down):  4.462E-02 0.000E+00

     total cpu time spent up to now is       20.0 secs

     total energy              =      -2.31790121 Ry
     estimated scf accuracy    <       0.00000057 Ry

     iteration #  2     ecut=    25.00 Ry     beta= 0.70
     Davidson diagonalization with overlap

---- Real-time Memory Report at c_bands before calling an iterative solver
           372 MiB given to the printing process from OS
             0 MiB allocation reported by mallinfo(arena+hblkhd)
           241 MiB available memory on the node where the printing process lives
------------------
     ethr =  2.85E-08,  avg # of iterations =  2.0

     negative rho (up, down):  4.460E-02 0.000E+00

     total cpu time spent up to now is       20.7 secs

     total energy              =      -2.31791780 Ry
     estimated scf accuracy    <       0.00000001 Ry

     iteration #  3     ecut=    25.00 Ry     beta= 0.70
     Davidson diagonalization with overlap

---- Real-time Memory Report at c_bands before calling an iterative solver
           372 MiB given to the printing process from OS
             0 MiB allocation reported by mallinfo(arena+hblkhd)
           226 MiB available memory on the node where the printing process lives
------------------
     ethr =  6.64E-10,  avg # of iterations =  2.0

     negative rho (up, down):  4.460E-02 0.000E+00

     total cpu time spent up to now is       21.4 secs

     End of self-consistent calculation

          k =-0.5000-0.5000-0.5000 ( 57016 PWs)   bands (ev):

   -10.3412  -1.1099

     occupation numbers 
     1.0000   0.0000

     highest occupied, lowest unoccupied level (ev):   -10.3412   -1.1099

!    total energy              =      -2.31791344 Ry
     estimated scf accuracy    <          9.6E-10 Ry

     The total energy is the sum of the following terms:
     one-electron contribution =      -4.18388527 Ry
     hartree contribution      =       2.22726903 Ry
     xc contribution           =      -1.37781527 Ry
     ewald contribution        =       1.01651807 Ry

     convergence has been achieved in   3 iterations

     Forces acting on atoms (cartesian axes, Ry/au):

     atom    1 type  1   force =     0.01952922    0.00000000    0.00000000
     atom    2 type  1   force =    -0.01952922    0.00000000    0.00000000
     The non-local contrib.  to forces
     atom    1 type  1   force =     0.10868013    0.00000000    0.00000000
     atom    2 type  1   force =    -0.10713477    0.00000000    0.00000000
     The ionic contribution  to forces
     atom    1 type  1   force =    -0.97187299    0.00000000   -0.00000000
     atom    2 type  1   force =     0.97187299   -0.00000000   -0.00000000
     The local contribution  to forces
     atom    1 type  1   force =     0.88363640    0.00000000    0.00000000
     atom    2 type  1   force =    -0.88342075    0.00000000    0.00000000
     The core correction contribution to forces
     atom    1 type  1   force =     0.00000000    0.00000000    0.00000000
     atom    2 type  1   force =     0.00000000    0.00000000    0.00000000
     The Hubbard contrib.    to forces
     atom    1 type  1   force =     0.00000000    0.00000000    0.00000000
     atom    2 type  1   force =     0.00000000    0.00000000    0.00000000
     The SCF correction term to forces
     atom    1 type  1   force =    -0.00004074    0.00000000   -0.00000000
     atom    2 type  1   force =     0.00002689   -0.00000000   -0.00000000

     Total force =     0.027618     Total SCF correction =     0.000049
     Energy error            =      8.4E-06 Ry
     Gradient error          =      2.0E-02 Ry/Bohr

     number of scf cycles    =   5
     number of bfgs steps    =   1

     energy             old  =      -2.3179218292 Ry
     energy             new  =      -2.3179134426 Ry

     CASE: energy            _new > energy            _old

     new trust radius        =       0.0004150323 bohr
     new conv_thr            =       0.0000000100 Ry


ATOMIC_POSITIONS (angstrom)
H             0.0002196257        0.0000000000        0.0000000000
H             0.7597803743        0.0000000000        0.0000000000



     Writing config-only to output data dir ./.save/
     NEW-OLD atomic charge density approx. for the potential

     negative rho (up, down):  4.460E-02 0.000E+00

     total cpu time spent up to now is       22.3 secs

     Self-consistent Calculation

     iteration #  1     ecut=    25.00 Ry     beta= 0.70
     Davidson diagonalization with overlap

---- Real-time Memory Report at c_bands before calling an iterative solver
           372 MiB given to the printing process from OS
             0 MiB allocation reported by mallinfo(arena+hblkhd)
           364 MiB available memory on the node where the printing process lives
------------------
     ethr =  1.00E-06,  avg # of iterations =  2.0

     Threshold (ethr) on eigenvalues was too large:
     Diagonalizing with lowered threshold

     Davidson diagonalization with overlap

---- Real-time Memory Report at c_bands before calling an iterative solver
           372 MiB given to the printing process from OS
             0 MiB allocation reported by mallinfo(arena+hblkhd)
           366 MiB available memory on the node where the printing process lives
------------------
     ethr =  5.09E-09,  avg # of iterations =  1.0

     negative rho (up, down):  4.457E-02 0.000E+00

     total cpu time spent up to now is       23.3 secs

     total energy              =      -2.31791708 Ry
     estimated scf accuracy    <       0.00000011 Ry

     iteration #  2     ecut=    25.00 Ry     beta= 0.70
     Davidson diagonalization with overlap

---- Real-time Memory Report at c_bands before calling an iterative solver
           372 MiB given to the printing process from OS
             0 MiB allocation reported by mallinfo(arena+hblkhd)
           241 MiB available memory on the node where the printing process lives
------------------
     ethr =  5.57E-09,  avg # of iterations =  2.0

     negative rho (up, down):  4.457E-02 0.000E+00

     total cpu time spent up to now is       24.0 secs

     End of self-consistent calculation

          k =-0.5000-0.5000-0.5000 ( 57016 PWs)   bands (ev):

   -10.3379  -1.1098

     occupation numbers 
     1.0000   0.0000

     highest occupied, lowest unoccupied level (ev):   -10.3379   -1.1098

!    total energy              =      -2.31792003 Ry
     estimated scf accuracy    <          1.3E-09 Ry

     The total energy is the sum of the following terms:
     one-electron contribution =      -4.18231396 Ry
     hartree contribution      =       2.22642476 Ry
     xc contribution           =      -1.37742212 Ry
     ewald contribution        =       1.01539129 Ry

     convergence has been achieved in   2 iterations

     Forces acting on atoms (cartesian axes, Ry/au):

     atom    1 type  1   force =     0.02046981    0.00000000    0.00000000
     atom    2 type  1   force =    -0.02046981    0.00000000    0.00000000
     The non-local contrib.  to forces
     atom    1 type  1   force =     0.10864722    0.00000000    0.00000000
     atom    2 type  1   force =    -0.10717758    0.00000000    0.00000000
     The ionic contribution  to forces
     atom    1 type  1   force =    -0.97030124    0.00000000   -0.00000000
     atom    2 type  1   force =     0.97030124   -0.00000000   -0.00000000
     The local contribution  to forces
     atom    1 type  1   force =     0.88298645    0.00000000    0.00000000
     atom    2 type  1   force =    -0.88277295    0.00000000    0.00000000
     The core correction contribution to forces
     atom    1 type  1   force =     0.00000000    0.00000000    0.00000000
     atom    2 type  1   force =     0.00000000    0.00000000    0.00000000
     The Hubbard contrib.    to forces
     atom    1 type  1   force =     0.00000000    0.00000000    0.00000000
     atom    2 type  1   force =     0.00000000    0.00000000    0.00000000
     The SCF correction term to forces
     atom    1 type  1   force =    -0.00008028    0.00000000    0.00000000
     atom    2 type  1   force =    -0.00003817    0.00000000   -0.00000000

     Total force =     0.028949     Total SCF correction =     0.000089
     Energy error            =      1.8E-06 Ry
     Gradient error          =      2.0E-02 Ry/Bohr

     number of scf cycles    =   6
     number of bfgs steps    =   1

     energy             old  =      -2.3179218292 Ry
     energy             new  =      -2.3179200309 Ry

     CASE: energy            _new > energy            _old

     new trust radius        =       0.0001882597 bohr
     new conv_thr            =       0.0000000100 Ry


ATOMIC_POSITIONS (angstrom)
H             0.0000996228        0.0000000000        0.0000000000
H             0.7599003772        0.0000000000        0.0000000000



     Writing config-only to output data dir ./.save/
     NEW-OLD atomic charge density approx. for the potential

     negative rho (up, down):  4.456E-02 0.000E+00

     total cpu time spent up to now is       24.8 secs

     Self-consistent Calculation

     iteration #  1     ecut=    25.00 Ry     beta= 0.70
     Davidson diagonalization with overlap

---- Real-time Memory Report at c_bands before calling an iterative solver
           372 MiB given to the printing process from OS
             0 MiB allocation reported by mallinfo(arena+hblkhd)
           364 MiB available memory on the node where the printing process lives
------------------
     ethr =  1.00E-06,  avg # of iterations =  2.0

     Threshold (ethr) on eigenvalues was too large:
     Diagonalizing with lowered threshold

     Davidson diagonalization with overlap

---- Real-time Memory Report at c_bands before calling an iterative solver
           372 MiB given to the printing process from OS
             0 MiB allocation reported by mallinfo(arena+hblkhd)
           366 MiB available memory on the node where the printing process lives
------------------
     ethr =  6.71E-10,  avg # of iterations =  1.0

     negative rho (up, down):  4.455E-02 0.000E+00

     total cpu time spent up to now is       25.8 secs

     total energy              =      -2.31791932 Ry
     estimated scf accuracy    <       0.00000002 Ry

     iteration #  2     ecut=    25.00 Ry     beta= 0.70
     Davidson diagonalization with overlap

---- Real-time Memory Report at c_bands before calling an iterative solver
           372 MiB given to the printing process from OS
             0 MiB allocation reported by mallinfo(arena+hblkhd)
           241 MiB available memory on the node where the printing process lives
------------------
     ethr =  7.67E-10,  avg # of iterations =  2.0

     negative rho (up, down):  4.455E-02 0.000E+00

     total cpu time spent up to now is       26.5 secs

     End of self-consistent calculation

          k =-0.5000-0.5000-0.5000 ( 57016 PWs)   bands (ev):

   -10.3367  -1.1089

     occupation numbers 
     1.0000   0.0000

     highest occupied, lowest unoccupied level (ev):   -10.3367   -1.1089

!    total energy              =      -2.31791760 Ry
     estimated scf accuracy    <          2.7E-10 Ry

     The total energy is the sum of the following terms:
     one-electron contribution =      -4.18171660 Ry
     hartree contribution      =       2.22612695 Ry
     xc contribution           =      -1.37727930 Ry
     ewald contribution        =       1.01495135 Ry

     convergence has been achieved in   2 iterations

     Forces acting on atoms (cartesian axes, Ry/au):

     atom    1 type  1   force =     0.02083769    0.00000000    0.00000000
     atom    2 type  1   force =    -0.02083769    0.00000000    0.00000000
     The non-local contrib.  to forces
     atom    1 type  1   force =     0.10864897    0.00000000    0.00000000
     atom    2 type  1   force =    -0.10715442    0.00000000    0.00000000
     The ionic contribution  to forces
     atom    1 type  1   force =    -0.96968791    0.00000000   -0.00000000
     atom    2 type  1   force =     0.96968791    0.00000000   -0.00000000
     The local contribution  to forces
     atom    1 type  1   force =     0.88274969    0.00000000    0.00000000
     atom    2 type  1   force =    -0.88253604    0.00000000    0.00000000
     The core correction contribution to forces
     atom    1 type  1   force =     0.00000000    0.00000000    0.00000000
     atom    2 type  1   force =     0.00000000    0.00000000    0.00000000
     The Hubbard contrib.    to forces
     atom    1 type  1   force =     0.00000000    0.00000000    0.00000000
     atom    2 type  1   force =     0.00000000    0.00000000    0.00000000
     The SCF correction term to forces
     atom    1 type  1   force =    -0.00007155   -0.00000000    0.00000000
     atom    2 type  1   force =    -0.00003363    0.00000000    0.00000000

     Total force =     0.029469     Total SCF correction =     0.000079
     Energy error            =      4.2E-06 Ry
     Gradient error          =      2.1E-02 Ry/Bohr

     number of scf cycles    =   7
     number of bfgs steps    =   1

     energy             old  =      -2.3179218292 Ry
     energy             new  =      -2.3179175968 Ry

     CASE: energy            _new > energy            _old

     new trust radius        =       0.0000614939 bohr

     trust_radius < trust_radius_min

     resetting bfgs history

     new conv_thr            =       0.0000000100 Ry


ATOMIC_POSITIONS (angstrom)
H             0.0112081762        0.0000000000        0.0000000000
H             0.7487918238        0.0000000000        0.0000000000



     Writing config-only to output data dir ./.save/
     NEW-OLD atomic charge density approx. for the potential

     negative rho (up, down):  4.452E-02 0.000E+00

     total cpu time spent up to now is       27.3 secs

     Self-consistent Calculation

     iteration #  1     ecut=    25.00 Ry     beta= 0.70
     Davidson diagonalization with overlap

---- Real-time Memory Report at c_bands before calling an iterative solver
           372 MiB given to the printing process from OS
             0 MiB allocation reported by mallinfo(arena+hblkhd)
           364 MiB available memory on the node where the printing process lives
------------------
     ethr =  1.00E-06,  avg # of iterations =  3.0

     negative rho (up, down):  4.551E-02 0.000E+00

     total cpu time spent up to now is       28.2 secs

     total energy              =      -2.31737467 Ry
     estimated scf accuracy    <       0.00014260 Ry

     iteration #  2     ecut=    25.00 Ry     beta= 0.70
     Davidson diagonalization with overlap

---- Real-time Memory Report at c_bands before calling an iterative solver
           372 MiB given to the printing process from OS
             0 MiB allocation reported by mallinfo(arena+hblkhd)
           241 MiB available memory on the node where the printing process lives
------------------
     ethr =  7.13E-06,  avg # of iterations =  1.0

     negative rho (up, down):  4.572E-02 0.000E+00

     total cpu time spent up to now is       28.9 secs

     total energy              =      -2.31724466 Ry
     estimated scf accuracy    <       0.00000165 Ry

     iteration #  3     ecut=    25.00 Ry     beta= 0.70
     Davidson diagonalization with overlap

---- Real-time Memory Report at c_bands before calling an iterative solver
           372 MiB given to the printing process from OS
             0 MiB allocation reported by mallinfo(arena+hblkhd)
           227 MiB available memory on the node where the printing process lives
------------------
     ethr =  8.27E-08,  avg # of iterations =  2.0

     negative rho (up, down):  4.576E-02 0.000E+00

     total cpu time spent up to now is       29.7 secs

     total energy              =      -2.31722026 Ry
     estimated scf accuracy    <       0.00000007 Ry

     iteration #  4     ecut=    25.00 Ry     beta= 0.70
     Davidson diagonalization with overlap

---- Real-time Memory Report at c_bands before calling an iterative solver
           372 MiB given to the printing process from OS
             0 MiB allocation reported by mallinfo(arena+hblkhd)
           213 MiB available memory on the node where the printing process lives
------------------
     ethr =  3.68E-09,  avg # of iterations =  2.0

     negative rho (up, down):  4.576E-02 0.000E+00

     total cpu time spent up to now is       30.4 secs

     End of self-consistent calculation

          k =-0.5000-0.5000-0.5000 ( 57016 PWs)   bands (ev):

   -10.4472  -1.1272

     occupation numbers 
     1.0000   0.0000

     highest occupied, lowest unoccupied level (ev):   -10.4472   -1.1272

!    total energy              =      -2.31721239 Ry
     estimated scf accuracy    <          1.9E-09 Ry

     The total energy is the sum of the following terms:
     one-electron contribution =      -4.23889341 Ry
     hartree contribution      =       2.25624467 Ry
     xc contribution           =      -1.39145376 Ry
     ewald contribution        =       1.05689011 Ry

     convergence has been achieved in   4 iterations

     Forces acting on atoms (cartesian axes, Ry/au):

     atom    1 type  1   force =    -0.01494927    0.00000000    0.00000000
     atom    2 type  1   force =     0.01494927    0.00000000    0.00000000
     The non-local contrib.  to forces
     atom    1 type  1   force =     0.10943594    0.00000000    0.00000000
     atom    2 type  1   force =    -0.10728928    0.00000000    0.00000000
     The ionic contribution  to forces
     atom    1 type  1   force =    -1.02902528   -0.00000000   -0.00000000
     atom    2 type  1   force =     1.02902528   -0.00000000   -0.00000000
     The local contribution  to forces
     atom    1 type  1   force =     0.90584602    0.00000000    0.00000000
     atom    2 type  1   force =    -0.90564728    0.00000000    0.00000000
     The core correction contribution to forces
     atom    1 type  1   force =     0.00000000    0.00000000    0.00000000
     atom    2 type  1   force =     0.00000000    0.00000000    0.00000000
     The Hubbard contrib.    to forces
     atom    1 type  1   force =     0.00000000    0.00000000    0.00000000
     atom    2 type  1   force =     0.00000000    0.00000000    0.00000000
     The SCF correction term to forces
     atom    1 type  1   force =    -0.00000300   -0.00000000    0.00000000
     atom    2 type  1   force =     0.00006350   -0.00000000   -0.00000000

     Total force =     0.021141     Total SCF correction =     0.000064
     Energy error            =      7.1E-04 Ry
     Gradient error          =      1.5E-02 Ry/Bohr

     number of scf cycles    =   8
     number of bfgs steps    =   1

     energy             old  =      -2.3179218292 Ry
     energy             new  =      -2.3172123910 Ry

     CASE: energy            _new > energy            _old

     new trust radius        =       0.0059139641 bohr
     new conv_thr            =       0.0000000100 Ry


ATOMIC_POSITIONS (angstrom)
H             0.0031295350        0.0000000000        0.0000000000
H             0.7568704650        0.0000000000        0.0000000000



     Writing config-only to output data dir ./.save/
     NEW-OLD atomic charge density approx. for the potential

     negative rho (up, down):  4.574E-02 0.000E+00

     total cpu time spent up to now is       31.2 secs

     Self-consistent Calculation

     iteration #  1     ecut=    25.00 Ry     beta= 0.70
     Davidson diagonalization with overlap

---- Real-time Memory Report at c_bands before calling an iterative solver
           372 MiB given to the printing process from OS
             0 MiB allocation reported by mallinfo(arena+hblkhd)
           364 MiB available memory on the node where the printing process lives
------------------
     ethr =  1.00E-06,  avg # of iterations =  3.0

     negative rho (up, down):  4.507E-02 0.000E+00

     total cpu time spent up to now is       32.0 secs

     total energy              =      -2.31773172 Ry
     estimated scf accuracy    <       0.00007560 Ry

     iteration #  2     ecut=    25.00 Ry     beta= 0.70
     Davidson diagonalization with overlap

---- Real-time Memory Report at c_bands before calling an iterative solver
           372 MiB given to the printing process from OS
             0 MiB allocation reported by mallinfo(arena+hblkhd)
           241 MiB available memory on the node where the printing process lives
------------------
     ethr =  3.78E-06,  avg # of iterations =  1.0

     negative rho (up, down):  4.492E-02 0.000E+00

     total cpu time spent up to now is       32.7 secs

     total energy              =      -2.31784638 Ry
     estimated scf accuracy    <       0.00000099 Ry

     iteration #  3     ecut=    25.00 Ry     beta= 0.70
     Davidson diagonalization with overlap

---- Real-time Memory Report at c_bands before calling an iterative solver
           372 MiB given to the printing process from OS
             0 MiB allocation reported by mallinfo(arena+hblkhd)
           227 MiB available memory on the node where the printing process lives
------------------
     ethr =  4.93E-08,  avg # of iterations =  2.0

     negative rho (up, down):  4.490E-02 0.000E+00

     total cpu time spent up to now is       33.5 secs

     total energy              =      -2.31785928 Ry
     estimated scf accuracy    <       0.00000004 Ry

     iteration #  4     ecut=    25.00 Ry     beta= 0.70
     Davidson diagonalization with overlap

---- Real-time Memory Report at c_bands before calling an iterative solver
           372 MiB given to the printing process from OS
             0 MiB allocation reported by mallinfo(arena+hblkhd)
           213 MiB available memory on the node where the printing process lives
------------------
     ethr =  2.05E-09,  avg # of iterations =  2.0

     negative rho (up, down):  4.490E-02 0.000E+00

     total cpu time spent up to now is       34.2 secs

     End of self-consistent calculation

          k =-0.5000-0.5000-0.5000 ( 57016 PWs)   bands (ev):

   -10.3664  -1.1207

     occupation numbers 
     1.0000   0.0000

     highest occupied, lowest unoccupied level (ev):   -10.3664   -1.1207

!    total energy              =      -2.31786636 Ry
     estimated scf accuracy    <          2.2E-09 Ry

     The total energy is the sum of the following terms:
     one-electron contribution =      -4.19711413 Ry
     hartree contribution      =       2.23417518 Ry
     xc contribution           =      -1.38107239 Ry
     ewald contribution        =       1.02614498 Ry

     convergence has been achieved in   4 iterations

     Forces acting on atoms (cartesian axes, Ry/au):

     atom    1 type  1   force =     0.01162485    0.00000000    0.00000000
     atom    2 type  1   force =    -0.01162485    0.00000000    0.00000000
     The non-local contrib.  to forces
     atom    1 type  1   force =     0.10869995    0.00000000    0.00000000
     atom    2 type  1   force =    -0.10744061    0.00000000    0.00000000
     The ionic contribution  to forces
     atom    1 type  1   force =    -0.98535338   -0.00000000   -0.00000000
     atom    2 type  1   force =     0.98535338   -0.00000000   -0.00000000
     The local contribution  to forces
     atom    1 type  1   force =     0.88897895    0.00000000    0.00000000
     atom    2 type  1   force =    -0.88877221    0.00000000    0.00000000
     The core correction contribution to forces
     atom    1 type  1   force =     0.00000000    0.00000000    0.00000000
     atom    2 type  1   force =     0.00000000    0.00000000    0.00000000
     The Hubbard contrib.    to forces
     atom    1 type  1   force =     0.00000000    0.00000000    0.00000000
     atom    2 type  1   force =     0.00000000    0.00000000    0.00000000
     The SCF correction term to forces
     atom    1 type  1   force =    -0.00002793    0.00000000   -0.00000000
     atom    2 type  1   force =    -0.00009268    0.00000000    0.00000000

     Total force =     0.016440     Total SCF correction =     0.000097
     Energy error            =      5.5E-05 Ry
     Gradient error          =      1.2E-02 Ry/Bohr

     number of scf cycles    =   9
     number of bfgs steps    =   1

     energy             old  =      -2.3179218292 Ry
     energy             new  =      -2.3178663550 Ry

     CASE: energy            _new > energy            _old

     new trust radius        =       0.0024209059 bohr
     new conv_thr            =       0.0000000100 Ry


ATOMIC_POSITIONS (angstrom)
H             0.0012810882        0.0000000000        0.0000000000
H             0.7587189118        0.0000000000        0.0000000000



     Writing config-only to output data dir ./.save/
     NEW-OLD atomic charge density approx. for the potential

     negative rho (up, down):  4.488E-02 0.000E+00

     total cpu time spent up to now is       35.0 secs

     Self-consistent Calculation

     iteration #  1     ecut=    25.00 Ry     beta= 0.70
     Davidson diagonalization with overlap

---- Real-time Memory Report at c_bands before calling an iterative solver
           372 MiB given to the printing process from OS
             0 MiB allocation reported by mallinfo(arena+hblkhd)
           364 MiB available memory on the node where the printing process lives
------------------
     ethr =  1.00E-06,  avg # of iterations =  2.0

     negative rho (up, down):  4.473E-02 0.000E+00

     total cpu time spent up to now is       35.8 secs

     total energy              =      -2.31787033 Ry
     estimated scf accuracy    <       0.00000347 Ry

     iteration #  2     ecut=    25.00 Ry     beta= 0.70
     Davidson diagonalization with overlap

---- Real-time Memory Report at c_bands before calling an iterative solver
           372 MiB given to the printing process from OS
             0 MiB allocation reported by mallinfo(arena+hblkhd)
           239 MiB available memory on the node where the printing process lives
------------------
     ethr =  1.74E-07,  avg # of iterations =  1.0

     negative rho (up, down):  4.469E-02 0.000E+00

     total cpu time spent up to now is       36.5 secs

     total energy              =      -2.31790171 Ry
     estimated scf accuracy    <       0.00000011 Ry

     iteration #  3     ecut=    25.00 Ry     beta= 0.70
     Davidson diagonalization with overlap

---- Real-time Memory Report at c_bands before calling an iterative solver
           372 MiB given to the printing process from OS
             0 MiB allocation reported by mallinfo(arena+hblkhd)
           225 MiB available memory on the node where the printing process lives
------------------
     ethr =  5.43E-09,  avg # of iterations =  3.0

     negative rho (up, down):  4.470E-02 0.000E+00

     total cpu time spent up to now is       37.3 secs

     total energy              =      -2.31789463 Ry
     estimated scf accuracy    <       0.00000002 Ry

     iteration #  4     ecut=    25.00 Ry     beta= 0.70
     Davidson diagonalization with overlap

---- Real-time Memory Report at c_bands before calling an iterative solver
           372 MiB given to the printing process from OS
             0 MiB allocation reported by mallinfo(arena+hblkhd)
           212 MiB available memory on the node where the printing process lives
------------------
     ethr =  1.09E-09,  avg # of iterations =  3.0

     negative rho (up, down):  4.469E-02 0.000E+00

     total cpu time spent up to now is       38.1 secs

     total energy              =      -2.31790068 Ry
     estimated scf accuracy    <       0.00000002 Ry

     iteration #  5     ecut=    25.00 Ry     beta= 0.70
     Davidson diagonalization with overlap

---- Real-time Memory Report at c_bands before calling an iterative solver
           372 MiB given to the printing process from OS
             0 MiB allocation reported by mallinfo(arena+hblkhd)
           198 MiB available memory on the node where the printing process lives
------------------
     ethr =  8.87E-10,  avg # of iterations =  2.0

     negative rho (up, down):  4.469E-02 0.000E+00

     total cpu time spent up to now is       38.8 secs

     End of self-consistent calculation

          k =-0.5000-0.5000-0.5000 ( 57016 PWs)   bands (ev):

   -10.3480  -1.1109

     occupation numbers 
     1.0000   0.0000

     highest occupied, lowest unoccupied level (ev):   -10.3480   -1.1109

!    total energy              =      -2.31789966 Ry
     estimated scf accuracy    <          1.3E-09 Ry

     The total energy is the sum of the following terms:
     one-electron contribution =      -4.18770417 Ry
     hartree contribution      =       2.22925050 Ry
     xc contribution           =      -1.37874081 Ry
     ewald contribution        =       1.01929481 Ry

     convergence has been achieved in   5 iterations

     Forces acting on atoms (cartesian axes, Ry/au):

     atom    1 type  1   force =     0.01720013    0.00000000    0.00000000
     atom    2 type  1   force =    -0.01720013    0.00000000    0.00000000
     The non-local contrib.  to forces
     atom    1 type  1   force =     0.10863982    0.00000000    0.00000000
     atom    2 type  1   force =    -0.10718364    0.00000000    0.00000000
     The ionic contribution  to forces
     atom    1 type  1   force =    -0.97575171    0.00000000   -0.00000000
     atom    2 type  1   force =     0.97575171   -0.00000000   -0.00000000
     The local contribution  to forces
     atom    1 type  1   force =     0.88516609    0.00000000    0.00000000
     atom    2 type  1   force =    -0.88495665    0.00000000    0.00000000
     The core correction contribution to forces
     atom    1 type  1   force =     0.00000000    0.00000000    0.00000000
     atom    2 type  1   force =     0.00000000    0.00000000    0.00000000
     The Hubbard contrib.    to forces
     atom    1 type  1   force =     0.00000000    0.00000000    0.00000000
     atom    2 type  1   force =     0.00000000    0.00000000    0.00000000
     The SCF correction term to forces
     atom    1 type  1   force =     0.00002629   -0.00000000   -0.00000000
     atom    2 type  1   force =     0.00006879    0.00000000    0.00000000

     Total force =     0.024325     Total SCF correction =     0.000074
     Energy error            =      2.2E-05 Ry
     Gradient error          =      1.7E-02 Ry/Bohr

     number of scf cycles    =  10
     number of bfgs steps    =   1

     energy             old  =      -2.3179218292 Ry
     energy             new  =      -2.3178996609 Ry

     CASE: energy            _new > energy            _old

     new trust radius        =       0.0009953013 bohr
     new conv_thr            =       0.0000000100 Ry


ATOMIC_POSITIONS (angstrom)
H             0.0005266908        0.0000000000        0.0000000000
H             0.7594733092        0.0000000000        0.0000000000



     Writing config-only to output data dir ./.save/
     NEW-OLD atomic charge density approx. for the potential

     negative rho (up, down):  4.468E-02 0.000E+00

     total cpu time spent up to now is       39.6 secs

     Self-consistent Calculation

     iteration #  1     ecut=    25.00 Ry     beta= 0.70
     Davidson diagonalization with overlap

---- Real-time Memory Report at c_bands before calling an iterative solver
           372 MiB given to the printing process from OS
             0 MiB allocation reported by mallinfo(arena+hblkhd)
           364 MiB available memory on the node where the printing process lives
------------------
     ethr =  1.00E-06,  avg # of iterations =  2.0

     Threshold (ethr) on eigenvalues was too large:
     Diagonalizing with lowered threshold

     Davidson diagonalization with overlap

---- Real-time Memory Report at c_bands before calling an iterative solver
           372 MiB given to the printing process from OS
             0 MiB allocation reported by mallinfo(arena+hblkhd)
           366 MiB available memory on the node where the printing process lives
------------------
     ethr =  2.66E-08,  avg # of iterations =  1.0

     negative rho (up, down):  4.462E-02 0.000E+00

     total cpu time spent up to now is       40.6 secs

     total energy              =      -2.31790121 Ry
     estimated scf accuracy    <       0.00000057 Ry

     iteration #  2     ecut=    25.00 Ry     beta= 0.70
     Davidson diagonalization with overlap

---- Real-time Memory Report at c_bands before calling an iterative solver
           372 MiB given to the printing process from OS
             0 MiB allocation reported by mallinfo(arena+hblkhd)
           241 MiB available memory on the node where the printing process lives
------------------
     ethr =  2.85E-08,  avg # of iterations =  2.0

     negative rho (up, down):  4.460E-02 0.000E+00

     total cpu time spent up to now is       41.4 secs

     total energy              =      -2.31791780 Ry
     estimated scf accuracy    <       0.00000001 Ry

     iteration #  3     ecut=    25.00 Ry     beta= 0.70
     Davidson diagonalization with overlap

---- Real-time Memory Report at c_bands before calling an iterative solver
           372 MiB given to the printing process from OS
             0 MiB allocation reported by mallinfo(arena+hblkhd)
           227 MiB available memory on the node where the printing process lives
------------------
     ethr =  6.64E-10,  avg # of iterations =  2.0

     negative rho (up, down):  4.460E-02 0.000E+00

     total cpu time spent up to now is       42.0 secs

     End of self-consistent calculation

          k =-0.5000-0.5000-0.5000 ( 57016 PWs)   bands (ev):

   -10.3412  -1.1100

     occupation numbers 
     1.0000   0.0000

     highest occupied, lowest unoccupied level (ev):   -10.3412   -1.1100

!    total energy              =      -2.31791344 Ry
     estimated scf accuracy    <          9.5E-10 Ry

     The total energy is the sum of the following terms:
     one-electron contribution =      -4.18388548 Ry
     hartree contribution      =       2.22726905 Ry
     xc contribution           =      -1.37781528 Ry
     ewald contribution        =       1.01651827 Ry

     convergence has been achieved in   3 iterations

     Forces acting on atoms (cartesian axes, Ry/au):

     atom    1 type  1   force =     0.01952899    0.00000000    0.00000000
     atom    2 type  1   force =    -0.01952899    0.00000000    0.00000000
     The non-local contrib.  to forces
     atom    1 type  1   force =     0.10868013    0.00000000    0.00000000
     atom    2 type  1   force =    -0.10713475    0.00000000    0.00000000
     The ionic contribution  to forces
     atom    1 type  1   force =    -0.97187328   -0.00000000   -0.00000000
     atom    2 type  1   force =     0.97187328   -0.00000000   -0.00000000
     The local contribution  to forces
     atom    1 type  1   force =     0.88363659    0.00000000    0.00000000
     atom    2 type  1   force =    -0.88342067    0.00000000    0.00000000
     The core correction contribution to forces
     atom    1 type  1   force =     0.00000000    0.00000000    0.00000000
     atom    2 type  1   force =     0.00000000    0.00000000    0.00000000
     The Hubbard contrib.    to forces
     atom    1 type  1   force =     0.00000000    0.00000000    0.00000000
     atom    2 type  1   force =     0.00000000    0.00000000    0.00000000
     The SCF correction term to forces
     atom    1 type  1   force =    -0.00004075    0.00000000    0.00000000
     atom    2 type  1   force =     0.00002685    0.00000000    0.00000000

     Total force =     0.027618     Total SCF correction =     0.000049
     Energy error            =      8.4E-06 Ry
     Gradient error          =      2.0E-02 Ry/Bohr

     number of scf cycles    =  11
     number of bfgs steps    =   1

     energy             old  =      -2.3179218292 Ry
     energy             new  =      -2.3179134441 Ry

     CASE: energy            _new > energy            _old

     new trust radius        =       0.0004150968 bohr
     new conv_thr            =       0.0000000100 Ry


ATOMIC_POSITIONS (angstrom)
H             0.0002196598        0.0000000000        0.0000000000
H             0.7597803402        0.0000000000        0.0000000000



     Writing config-only to output data dir ./.save/
     NEW-OLD atomic charge density approx. for the potential

     negative rho (up, down):  4.460E-02 0.000E+00

     total cpu time spent up to now is       42.8 secs

     Self-consistent Calculation

     iteration #  1     ecut=    25.00 Ry     beta= 0.70
     Davidson diagonalization with overlap

---- Real-time Memory Report at c_bands before calling an iterative solver
           372 MiB given to the printing process from OS
             0 MiB allocation reported by mallinfo(arena+hblkhd)
           364 MiB available memory on the node where the printing process lives
------------------
     ethr =  1.00E-06,  avg # of iterations =  2.0

     Threshold (ethr) on eigenvalues was too large:
     Diagonalizing with lowered threshold

     Davidson diagonalization with overlap

---- Real-time Memory Report at c_bands before calling an iterative solver
           372 MiB given to the printing process from OS
             0 MiB allocation reported by mallinfo(arena+hblkhd)
           366 MiB available memory on the node where the printing process lives
------------------
     ethr =  5.09E-09,  avg # of iterations =  1.0

     negative rho (up, down):  4.457E-02 0.000E+00

     total cpu time spent up to now is       43.8 secs

     total energy              =      -2.31791708 Ry
     estimated scf accuracy    <       0.00000011 Ry

     iteration #  2     ecut=    25.00 Ry     beta= 0.70
     Davidson diagonalization with overlap

---- Real-time Memory Report at c_bands before calling an iterative solver
           372 MiB given to the printing process from OS
             0 MiB allocation reported by mallinfo(arena+hblkhd)
           241 MiB available memory on the node where the printing process lives
------------------
     ethr =  5.56E-09,  avg # of iterations =  2.0

     negative rho (up, down):  4.457E-02 0.000E+00

     total cpu time spent up to now is       44.5 secs

     End of self-consistent calculation

          k =-0.5000-0.5000-0.5000 ( 57016 PWs)   bands (ev):

   -10.3379  -1.1099

     occupation numbers 
     1.0000   0.0000

     highest occupied, lowest unoccupied level (ev):   -10.3379   -1.1099

!    total energy              =      -2.31792003 Ry
     estimated scf accuracy    <          1.3E-09 Ry

     The total energy is the sum of the following terms:
     one-electron contribution =      -4.18231411 Ry
     hartree contribution      =       2.22642480 Ry
     xc contribution           =      -1.37742214 Ry
     ewald contribution        =       1.01539142 Ry

     convergence has been achieved in   2 iterations

     Forces acting on atoms (cartesian axes, Ry/au):

     atom    1 type  1   force =     0.02046966    0.00000000    0.00000000
     atom    2 type  1   force =    -0.02046966    0.00000000    0.00000000
     The non-local contrib.  to forces
     atom    1 type  1   force =     0.10864722    0.00000000    0.00000000
     atom    2 type  1   force =    -0.10717757    0.00000000    0.00000000
     The ionic contribution  to forces
     atom    1 type  1   force =    -0.97030141   -0.00000000   -0.00000000
     atom    2 type  1   force =     0.97030141    0.00000000   -0.00000000
     The local contribution  to forces
     atom    1 type  1   force =     0.88298658    0.00000000    0.00000000
     atom    2 type  1   force =    -0.88277290    0.00000000    0.00000000
     The core correction contribution to forces
     atom    1 type  1   force =     0.00000000    0.00000000    0.00000000
     atom    2 type  1   force =     0.00000000    0.00000000    0.00000000
     The Hubbard contrib.    to forces
     atom    1 type  1   force =     0.00000000    0.00000000    0.00000000
     atom    2 type  1   force =     0.00000000    0.00000000    0.00000000
     The SCF correction term to forces
     atom    1 type  1   force =    -0.00008030    0.00000000    0.00000000
     atom    2 type  1   force =    -0.00003819    0.00000000    0.00000000

     Total force =     0.028948     Total SCF correction =     0.000089
     Energy error            =      1.8E-06 Ry
     Gradient error          =      2.0E-02 Ry/Bohr

     number of scf cycles    =  12
     number of bfgs steps    =   1

     energy             old  =      -2.3179218292 Ry
     energy             new  =      -2.3179200316 Ry

     CASE: energy            _new > energy            _old

     new trust radius        =       0.0001882989 bohr
     new conv_thr            =       0.0000000100 Ry


ATOMIC_POSITIONS (angstrom)
H             0.0000996435        0.0000000000        0.0000000000
H             0.7599003565        0.0000000000        0.0000000000



     Writing config-only to output data dir ./.save/
     NEW-OLD atomic charge density approx. for the potential

     negative rho (up, down):  4.456E-02 0.000E+00

     total cpu time spent up to now is       45.3 secs

     Self-consistent Calculation

     iteration #  1     ecut=    25.00 Ry     beta= 0.70
     Davidson diagonalization with overlap

---- Real-time Memory Report at c_bands before calling an iterative solver
           372 MiB given to the printing process from OS
             0 MiB allocation reported by mallinfo(arena+hblkhd)
           364 MiB available memory on the node where the printing process lives
------------------
     ethr =  1.00E-06,  avg # of iterations =  2.0

     Threshold (ethr) on eigenvalues was too large:
     Diagonalizing with lowered threshold

     Davidson diagonalization with overlap

---- Real-time Memory Report at c_bands before calling an iterative solver
           372 MiB given to the printing process from OS
             0 MiB allocation reported by mallinfo(arena+hblkhd)
           366 MiB available memory on the node where the printing process lives
------------------
     ethr =  6.72E-10,  avg # of iterations =  1.0

     negative rho (up, down):  4.455E-02 0.000E+00

     total cpu time spent up to now is       46.3 secs

     total energy              =      -2.31791932 Ry
     estimated scf accuracy    <       0.00000002 Ry

     iteration #  2     ecut=    25.00 Ry     beta= 0.70
     Davidson diagonalization with overlap

---- Real-time Memory Report at c_bands before calling an iterative solver
           372 MiB given to the printing process from OS
             0 MiB allocation reported by mallinfo(arena+hblkhd)
           241 MiB available memory on the node where the printing process lives
------------------
     ethr =  7.67E-10,  avg # of iterations =  2.0

     negative rho (up, down):  4.455E-02 0.000E+00

     total cpu time spent up to now is       47.0 secs

     End of self-consistent calculation

          k =-0.5000-0.5000-0.5000 ( 57016 PWs)   bands (ev):

   -10.3367  -1.1089

     occupation numbers 
     1.0000   0.0000

     highest occupied, lowest unoccupied level (ev):   -10.3367   -1.1089

!    total energy              =      -2.31791760 Ry
     estimated scf accuracy    <          2.7E-10 Ry

     The total energy is the sum of the following terms:
     one-electron contribution =      -4.18171669 Ry
     hartree contribution      =       2.22612697 Ry
     xc contribution           =      -1.37727931 Ry
     ewald contribution        =       1.01495143 Ry

     convergence has been achieved in   2 iterations

     Forces acting on atoms (cartesian axes, Ry/au):

     atom    1 type  1   force =     0.02083760    0.00000000    0.00000000
     atom    2 type  1   force =    -0.02083760    0.00000000    0.00000000
     The non-local contrib.  to forces
     atom    1 type  1   force =     0.10864896    0.00000000    0.00000000
     atom    2 type  1   force =    -0.10715441    0.00000000    0.00000000
     The ionic contribution  to forces
     atom    1 type  1   force =    -0.96968802   -0.00000000   -0.00000000
[...]
     atom    2 type  1   force =    -0.88342036    0.00000000    0.00000000
     The core correction contribution to forces
     atom    1 type  1   force =     0.00000000    0.00000000    0.00000000
     atom    2 type  1   force =     0.00000000    0.00000000    0.00000000
     The Hubbard contrib.    to forces
     atom    1 type  1   force =     0.00000000    0.00000000    0.00000000
     atom    2 type  1   force =     0.00000000    0.00000000    0.00000000
     The SCF correction term to forces
     atom    1 type  1   force =    -0.00004080   -0.00000000   -0.00000000
     atom    2 type  1   force =     0.00002685    0.00000000    0.00000000

     Total force =     0.027619     Total SCF correction =     0.000049
     Energy error            =      8.4E-06 Ry
     Gradient error          =      2.0E-02 Ry/Bohr

     number of scf cycles    =  47
     number of bfgs steps    =   1

     energy             old  =      -2.3179218292 Ry
     energy             new  =      -2.3179134430 Ry

     CASE: energy            _new > energy            _old

     new trust radius        =       0.0004149924 bohr
     new conv_thr            =       0.0000000100 Ry


ATOMIC_POSITIONS (angstrom)
H             0.0002196045        0.0000000000        0.0000000000
H             0.7597803955        0.0000000000        0.0000000000



     Writing config-only to output data dir ./.save/
     NEW-OLD atomic charge density approx. for the potential

     negative rho (up, down):  4.460E-02 0.000E+00

     total cpu time spent up to now is      166.4 secs

     Self-consistent Calculation

     iteration #  1     ecut=    25.00 Ry     beta= 0.70
     Davidson diagonalization with overlap

---- Real-time Memory Report at c_bands before calling an iterative solver
           372 MiB given to the printing process from OS
             0 MiB allocation reported by mallinfo(arena+hblkhd)
           362 MiB available memory on the node where the printing process lives
------------------
     ethr =  1.00E-06,  avg # of iterations =  2.0

     Threshold (ethr) on eigenvalues was too large:
     Diagonalizing with lowered threshold

     Davidson diagonalization with overlap

---- Real-time Memory Report at c_bands before calling an iterative solver
           372 MiB given to the printing process from OS
             0 MiB allocation reported by mallinfo(arena+hblkhd)
           364 MiB available memory on the node where the printing process lives
------------------
     ethr =  5.10E-09,  avg # of iterations =  1.0

     negative rho (up, down):  4.457E-02 0.000E+00

     total cpu time spent up to now is      167.3 secs

     total energy              =      -2.31791708 Ry
     estimated scf accuracy    <       0.00000011 Ry

     iteration #  2     ecut=    25.00 Ry     beta= 0.70
     Davidson diagonalization with overlap

---- Real-time Memory Report at c_bands before calling an iterative solver
           372 MiB given to the printing process from OS
             0 MiB allocation reported by mallinfo(arena+hblkhd)
           239 MiB available memory on the node where the printing process lives
------------------
     ethr =  5.57E-09,  avg # of iterations =  2.0

     negative rho (up, down):  4.457E-02 0.000E+00

     total cpu time spent up to now is      168.1 secs

     End of self-consistent calculation

          k =-0.5000-0.5000-0.5000 ( 57016 PWs)   bands (ev):

   -10.3379  -1.1102

     occupation numbers 
     1.0000   0.0000

     highest occupied, lowest unoccupied level (ev):   -10.3379   -1.1102

!    total energy              =      -2.31792003 Ry
     estimated scf accuracy    <          1.3E-09 Ry

     The total energy is the sum of the following terms:
     one-electron contribution =      -4.18231389 Ry
     hartree contribution      =       2.22642478 Ry
     xc contribution           =      -1.37742214 Ry
     ewald contribution        =       1.01539121 Ry

     convergence has been achieved in   2 iterations

     Forces acting on atoms (cartesian axes, Ry/au):

     atom    1 type  1   force =     0.02046991    0.00000000    0.00000000
     atom    2 type  1   force =    -0.02046991    0.00000000    0.00000000
     The non-local contrib.  to forces
     atom    1 type  1   force =     0.10864723    0.00000000    0.00000000
     atom    2 type  1   force =    -0.10717756    0.00000000    0.00000000
     The ionic contribution  to forces
     atom    1 type  1   force =    -0.97030113   -0.00000000   -0.00000000
     atom    2 type  1   force =     0.97030113   -0.00000000   -0.00000000
     The local contribution  to forces
     atom    1 type  1   force =     0.88298677    0.00000000    0.00000000
     atom    2 type  1   force =    -0.88277269    0.00000000    0.00000000
     The core correction contribution to forces
     atom    1 type  1   force =     0.00000000    0.00000000    0.00000000
     atom    2 type  1   force =     0.00000000    0.00000000    0.00000000
     The Hubbard contrib.    to forces
     atom    1 type  1   force =     0.00000000    0.00000000    0.00000000
     atom    2 type  1   force =     0.00000000    0.00000000    0.00000000
     The SCF correction term to forces
     atom    1 type  1   force =    -0.00008039   -0.00000000   -0.00000000
     atom    2 type  1   force =    -0.00003820   -0.00000000    0.00000000

     Total force =     0.028949     Total SCF correction =     0.000089
     Energy error            =      1.8E-06 Ry
     Gradient error          =      2.0E-02 Ry/Bohr

     number of scf cycles    =  48
     number of bfgs steps    =   1

     energy             old  =      -2.3179218292 Ry
     energy             new  =      -2.3179200297 Ry

     CASE: energy            _new > energy            _old

     new trust radius        =       0.0001882286 bohr
     new conv_thr            =       0.0000000100 Ry


ATOMIC_POSITIONS (angstrom)
H             0.0000996063        0.0000000000        0.0000000000
H             0.7599003937        0.0000000000        0.0000000000



     Writing config-only to output data dir ./.save/
     NEW-OLD atomic charge density approx. for the potential

     negative rho (up, down):  4.456E-02 0.000E+00

     total cpu time spent up to now is      168.9 secs

     Self-consistent Calculation

     iteration #  1     ecut=    25.00 Ry     beta= 0.70
     Davidson diagonalization with overlap

---- Real-time Memory Report at c_bands before calling an iterative solver
           372 MiB given to the printing process from OS
             0 MiB allocation reported by mallinfo(arena+hblkhd)
           362 MiB available memory on the node where the printing process lives
------------------
     ethr =  1.00E-06,  avg # of iterations =  2.0

     Threshold (ethr) on eigenvalues was too large:
     Diagonalizing with lowered threshold

     Davidson diagonalization with overlap

---- Real-time Memory Report at c_bands before calling an iterative solver
           372 MiB given to the printing process from OS
             0 MiB allocation reported by mallinfo(arena+hblkhd)
           364 MiB available memory on the node where the printing process lives
------------------
     ethr =  6.74E-10,  avg # of iterations =  1.0

     negative rho (up, down):  4.455E-02 0.000E+00

     total cpu time spent up to now is      169.9 secs

     total energy              =      -2.31791932 Ry
     estimated scf accuracy    <       0.00000002 Ry

     iteration #  2     ecut=    25.00 Ry     beta= 0.70
     Davidson diagonalization with overlap

---- Real-time Memory Report at c_bands before calling an iterative solver
           372 MiB given to the printing process from OS
             0 MiB allocation reported by mallinfo(arena+hblkhd)
           239 MiB available memory on the node where the printing process lives
------------------
     ethr =  7.70E-10,  avg # of iterations =  2.0

     negative rho (up, down):  4.455E-02 0.000E+00

     total cpu time spent up to now is      170.6 secs

     End of self-consistent calculation

          k =-0.5000-0.5000-0.5000 ( 57016 PWs)   bands (ev):

   -10.3367  -1.1092

     occupation numbers 
     1.0000   0.0000

     highest occupied, lowest unoccupied level (ev):   -10.3367   -1.1092

!    total energy              =      -2.31791760 Ry
     estimated scf accuracy    <          2.7E-10 Ry

     The total energy is the sum of the following terms:
     one-electron contribution =      -4.18171657 Ry
     hartree contribution      =       2.22612702 Ry
     xc contribution           =      -1.37727933 Ry
     ewald contribution        =       1.01495129 Ry

     convergence has been achieved in   2 iterations

     Forces acting on atoms (cartesian axes, Ry/au):

     atom    1 type  1   force =     0.02083778    0.00000000    0.00000000
     atom    2 type  1   force =    -0.02083778    0.00000000    0.00000000
     The non-local contrib.  to forces
     atom    1 type  1   force =     0.10864898    0.00000000    0.00000000
     atom    2 type  1   force =    -0.10715441    0.00000000    0.00000000
     The ionic contribution  to forces
     atom    1 type  1   force =    -0.96968783    0.00000000   -0.00000000
     atom    2 type  1   force =     0.96968783    0.00000000   -0.00000000
     The local contribution  to forces
     atom    1 type  1   force =     0.88274983    0.00000000    0.00000000
     atom    2 type  1   force =    -0.88253597    0.00000000    0.00000000
     The core correction contribution to forces
     atom    1 type  1   force =     0.00000000    0.00000000    0.00000000
     atom    2 type  1   force =     0.00000000    0.00000000    0.00000000
     The Hubbard contrib.    to forces
     atom    1 type  1   force =     0.00000000    0.00000000    0.00000000
     atom    2 type  1   force =     0.00000000    0.00000000    0.00000000
     The SCF correction term to forces
     atom    1 type  1   force =    -0.00007159   -0.00000000   -0.00000000
     atom    2 type  1   force =    -0.00003360   -0.00000000   -0.00000000

     Total force =     0.029469     Total SCF correction =     0.000079
     Energy error            =      4.2E-06 Ry
     Gradient error          =      2.1E-02 Ry/Bohr

     number of scf cycles    =  49
     number of bfgs steps    =   1

     energy             old  =      -2.3179218292 Ry
     energy             new  =      -2.3179175953 Ry

     CASE: energy            _new > energy            _old

     new trust radius        =       0.0000614724 bohr

     trust_radius < trust_radius_min

     resetting bfgs history

     new conv_thr            =       0.0000000100 Ry


ATOMIC_POSITIONS (angstrom)
H             0.0112081762        0.0000000000        0.0000000000
H             0.7487918238        0.0000000000        0.0000000000



     Writing config-only to output data dir ./.save/
     NEW-OLD atomic charge density approx. for the potential

     negative rho (up, down):  4.452E-02 0.000E+00

     total cpu time spent up to now is      171.4 secs

     Self-consistent Calculation

     iteration #  1     ecut=    25.00 Ry     beta= 0.70
     Davidson diagonalization with overlap

---- Real-time Memory Report at c_bands before calling an iterative solver
           372 MiB given to the printing process from OS
             0 MiB allocation reported by mallinfo(arena+hblkhd)
           362 MiB available memory on the node where the printing process lives
------------------
     ethr =  1.00E-06,  avg # of iterations =  3.0

     negative rho (up, down):  4.551E-02 0.000E+00

     total cpu time spent up to now is      172.2 secs

     total energy              =      -2.31737440 Ry
     estimated scf accuracy    <       0.00014260 Ry

     iteration #  2     ecut=    25.00 Ry     beta= 0.70
     Davidson diagonalization with overlap

---- Real-time Memory Report at c_bands before calling an iterative solver
           372 MiB given to the printing process from OS
             0 MiB allocation reported by mallinfo(arena+hblkhd)
           239 MiB available memory on the node where the printing process lives
------------------
     ethr =  7.13E-06,  avg # of iterations =  1.0

     negative rho (up, down):  4.572E-02 0.000E+00

     total cpu time spent up to now is      172.9 secs

     total energy              =      -2.31724519 Ry
     estimated scf accuracy    <       0.00000165 Ry

     iteration #  3     ecut=    25.00 Ry     beta= 0.70
     Davidson diagonalization with overlap

---- Real-time Memory Report at c_bands before calling an iterative solver
           372 MiB given to the printing process from OS
             0 MiB allocation reported by mallinfo(arena+hblkhd)
           224 MiB available memory on the node where the printing process lives
------------------
     ethr =  8.26E-08,  avg # of iterations =  2.0

     negative rho (up, down):  4.576E-02 0.000E+00

     total cpu time spent up to now is      173.7 secs

     total energy              =      -2.31722044 Ry
     estimated scf accuracy    <       0.00000007 Ry

     iteration #  4     ecut=    25.00 Ry     beta= 0.70
     Davidson diagonalization with overlap

---- Real-time Memory Report at c_bands before calling an iterative solver
           372 MiB given to the printing process from OS
             0 MiB allocation reported by mallinfo(arena+hblkhd)
           211 MiB available memory on the node where the printing process lives
------------------
     ethr =  3.68E-09,  avg # of iterations =  2.0

     negative rho (up, down):  4.576E-02 0.000E+00

     total cpu time spent up to now is      174.4 secs

     End of self-consistent calculation

          k =-0.5000-0.5000-0.5000 ( 57016 PWs)   bands (ev):

   -10.4471  -1.1278

     occupation numbers 
     1.0000   0.0000

     highest occupied, lowest unoccupied level (ev):   -10.4471   -1.1278

!    total energy              =      -2.31721240 Ry
     estimated scf accuracy    <          1.8E-09 Ry

     The total energy is the sum of the following terms:
     one-electron contribution =      -4.23889292 Ry
     hartree contribution      =       2.25624367 Ry
     xc contribution           =      -1.39145327 Ry
     ewald contribution        =       1.05689011 Ry

     convergence has been achieved in   4 iterations

     Forces acting on atoms (cartesian axes, Ry/au):

     atom    1 type  1   force =    -0.01494911    0.00000000    0.00000000
     atom    2 type  1   force =     0.01494911    0.00000000    0.00000000
     The non-local contrib.  to forces
     atom    1 type  1   force =     0.10943593    0.00000000    0.00000000
     atom    2 type  1   force =    -0.10728931    0.00000000    0.00000000
     The ionic contribution  to forces
     atom    1 type  1   force =    -1.02902528   -0.00000000   -0.00000000
     atom    2 type  1   force =     1.02902528   -0.00000000   -0.00000000
     The local contribution  to forces
     atom    1 type  1   force =     0.90584492    0.00000000    0.00000000
     atom    2 type  1   force =    -0.90564700    0.00000000    0.00000000
     The core correction contribution to forces
     atom    1 type  1   force =     0.00000000    0.00000000    0.00000000
     atom    2 type  1   force =     0.00000000    0.00000000    0.00000000
     The Hubbard contrib.    to forces
     atom    1 type  1   force =     0.00000000    0.00000000    0.00000000
     atom    2 type  1   force =     0.00000000    0.00000000    0.00000000
     The SCF correction term to forces
     atom    1 type  1   force =    -0.00000165   -0.00000000   -0.00000000
     atom    2 type  1   force =     0.00006316   -0.00000000   -0.00000000

     Total force =     0.021141     Total SCF correction =     0.000063
     Energy error            =      7.1E-04 Ry
     Gradient error          =      1.5E-02 Ry/Bohr

     number of scf cycles    =  50
     number of bfgs steps    =   1

     energy             old  =      -2.3179218292 Ry
     energy             new  =      -2.3172124046 Ry

     CASE: energy            _new > energy            _old

     new trust radius        =       0.0059140144 bohr

     The maximum number of steps has been reached.

     End of BFGS Geometry Optimization

ATOMIC_POSITIONS (angstrom)
H             0.0031295616        0.0000000000        0.0000000000
H             0.7568704384        0.0000000000        0.0000000000



     Writing config-only to output data dir ./.save/
     NEW-OLD atomic charge density approx. for the potential

     negative rho (up, down):  4.574E-02 0.000E+00

     Writing all to output data dir ./.save/

     init_run     :      0.74s CPU      0.78s WALL (       1 calls)
     electrons    :    134.35s CPU    136.26s WALL (      50 calls)
     update_pot   :     24.51s CPU     25.02s WALL (      50 calls)
     forces       :      9.37s CPU      9.63s WALL (      50 calls)

     Called by init_run:
     wfcinit      :      0.07s CPU      0.07s WALL (       1 calls)
     wfcinit:atom :      0.00s CPU      0.00s WALL (       1 calls)
     wfcinit:wfcr :      0.06s CPU      0.06s WALL (       1 calls)
     potinit      :      0.43s CPU      0.45s WALL (       1 calls)
     hinit0       :      0.04s CPU      0.04s WALL (       1 calls)

     Called by electrons:
     c_bands      :     29.69s CPU     29.74s WALL (     194 calls)
     sum_band     :     19.39s CPU     19.77s WALL (     194 calls)
     v_of_rho     :     90.63s CPU     91.20s WALL (     221 calls)
     v_h          :      5.64s CPU      5.65s WALL (     221 calls)
     v_xc         :     85.00s CPU     85.55s WALL (     221 calls)
     newd         :      6.97s CPU      7.00s WALL (     221 calls)
     mix_rho      :      6.33s CPU      7.18s WALL (     194 calls)

     Called by c_bands:
     init_us_2    :      0.58s CPU      0.59s WALL (     389 calls)
     init_us_2:cp :      0.58s CPU      0.59s WALL (     389 calls)
     cegterg      :     29.30s CPU     29.34s WALL (     194 calls)

     Called by sum_band:
     sum_band:wei :      0.00s CPU      0.00s WALL (     194 calls)
     sum_band:loo :      5.68s CPU      5.69s WALL (     194 calls)
     sum_band:buf :      0.00s CPU      0.00s WALL (     194 calls)
     sum_band:ini :      0.30s CPU      0.30s WALL (     194 calls)
     sum_band:cal :      0.08s CPU      0.08s WALL (     194 calls)
     sum_band:bec :      0.00s CPU      0.00s WALL (     194 calls)
     addusdens    :      1.83s CPU      2.10s WALL (     194 calls)
     addusd:skk   :      0.50s CPU      0.62s WALL (     194 calls)
     addusd:dgemm :      0.38s CPU      0.41s WALL (     194 calls)
     addusd:qvan2 :      0.48s CPU      0.53s WALL (     194 calls)

     Called by *egterg:
     cdiaghg      :      0.01s CPU      0.01s WALL (     506 calls)
     cegterg:over :      0.38s CPU      0.38s WALL (     385 calls)
     cegterg:upda :      0.27s CPU      0.27s WALL (     385 calls)
     cegterg:last :      0.49s CPU      0.50s WALL (     363 calls)
     h_psi        :     27.54s CPU     27.57s WALL (     580 calls)
     s_psi        :      0.17s CPU      0.17s WALL (     580 calls)
     g_psi        :      0.12s CPU      0.12s WALL (     385 calls)

     Called by h_psi:
     h_psi:calbec :      0.22s CPU      0.22s WALL (     580 calls)
     vloc_psi     :     27.04s CPU     27.07s WALL (     580 calls)
     add_vuspsi   :      0.18s CPU      0.18s WALL (     580 calls)

     General routines
     calbec       :      0.36s CPU      0.37s WALL (     974 calls)
     fft          :     50.62s CPU     50.66s WALL (    2605 calls)
     ffts         :      3.90s CPU      3.90s WALL (     194 calls)
     fftw         :     28.81s CPU     28.84s WALL (    2412 calls)


     PWSCF        :   2m52.52s CPU   2m55.29s WALL


   This run was terminated on:   3:49:18  28Feb2022            

=------------------------------------------------------------------------------=
   JOB DONE.
=------------------------------------------------------------------------------=
