
     Program PWSCF v.7.0 starts on 28Feb2022 at  2:57:38 

     This program is part of the open-source Quantum ESPRESSO suite
     for quantum simulation of materials; please cite
         "P. Giannozzi et al., J. Phys.:Condens. Matter 21 395502 (2009);
         "P. Giannozzi et al., J. Phys.:Condens. Matter 29 465901 (2017);
         "P. Giannozzi et al., J. Chem. Phys. 152 154105 (2020);
          URL http://www.quantum-espresso.org", 
     in publications or presentations arising from this work. More details at
     http://www.quantum-espresso.org/quote

     Serial version
     560 MiB available memory on the printing compute node when the environment starts

     Waiting for input...
     Reading input from standard input

     Current dimensions of program PWSCF are:
     Max number of different atomic species (ntypx) = 10
     Max number of k-points (npk) =  40000
     Max angular momentum in pseudopotentials (lmaxx) =  4

     File ./.update deleted, as requested

     File ./.bfgs deleted, as requested

    ============================================================
    |  pseudopotential report for atomic species:  1           |
    |        pseudo potential version   7   3   2              |
    ------------------------------------------------------------
    |  hydrogen            PBE                  exchange-corr  |
    |  z =   1.    zv( 1) =   1.    exfact =   5.00000         |
    |  ifpcor =  0           atomic energy =  -0.91772 Ry      |
    |  index    orbital      occupation    energy              |
    |    1        100           1.00       -0.48               |
    |  rinner =  0.5000                                        |
    |    new generation scheme:                                |
    |    nbeta =  1     kkbeta =  271     rcloc =    0.6000    |
    |    ibeta    l     epsilon   rcut                         |
    |      1       0      -0.48   0.80                         |
    ============================================================

     IMPORTANT: XC functional enforced from input :
     Exchange-correlation= BLYP
                           (   1   3   1   3   0   0   0)
     Any further DFT definition will be discarded
     Please, verify this is what you really want


     G-vector sticks info
     --------------------
     sticks:   dense  smooth     PW     G-vecs:    dense   smooth      PW
     Sum        2869    2869    793               115313   115313   17071

     Using Slab Decomposition



     bravais-lattice index     =            1
     lattice parameter (alat)  =      30.0000  a.u.
     unit-cell volume          =   27000.0000 (a.u.)^3
     number of atoms/cell      =            2
     number of atomic types    =            1
     number of electrons       =         2.00
     number of Kohn-Sham states=            2
     kinetic-energy cutoff     =      10.0000  Ry
     charge density cutoff     =      40.0000  Ry
     scf convergence threshold =      1.0E-08
     mixing beta               =       0.7000
     number of iterations used =            8  plain     mixing
     energy convergence thresh.=      1.0E-04
     force convergence thresh. =      1.0E-03
     Exchange-correlation= BLYP
                           (   1   3   1   3   0   0   0)
     nstep                     =           50


     celldm(1)=  30.000000  celldm(2)=   0.000000  celldm(3)=   0.000000
     celldm(4)=   0.000000  celldm(5)=   0.000000  celldm(6)=   0.000000

     crystal axes: (cart. coord. in units of alat)
               a(1) = (   1.000000   0.000000   0.000000 )  
               a(2) = (   0.000000   1.000000   0.000000 )  
               a(3) = (   0.000000   0.000000   1.000000 )  

     reciprocal axes: (cart. coord. in units 2 pi/alat)
               b(1) = (  1.000000  0.000000  0.000000 )  
               b(2) = (  0.000000  1.000000  0.000000 )  
               b(3) = (  0.000000  0.000000  1.000000 )  


     PseudoPot. # 1 for hy read from file:
     /root/q-e/pseudo/H_US.van
     MD5 check sum: a9a9bfe98ff56cf4de197d71fc46bb44
     Pseudo is Ultrasoft, Zval =  1.0
     Generated by Vanderbilt code, v. 7.3.2
     Using radial grid of  399 points,  1 beta functions with: 
                l(1) =   0
     Q(r) pseudized with  8 coefficients,  rinner =    0.500

     atomic species   valence    mass     pseudopotential
        H              1.00     1.00784     hy( 1.00)

      8 Sym. Ops. (no inversion) found


                                    s                        frac. trans.

      isym =  1     identity                                     

 cryst.   s( 1) = (     1          0          0      )
                  (     0          1          0      )
                  (     0          0          1      )

 cart.    s( 1) = (  1.0000000  0.0000000  0.0000000 )
                  (  0.0000000  1.0000000  0.0000000 )
                  (  0.0000000  0.0000000  1.0000000 )


      isym =  2     180 deg rotation - cart. axis [1,0,0]        

 cryst.   s( 2) = (     1          0          0      )
                  (     0         -1          0      )
                  (     0          0         -1      )

 cart.    s( 2) = (  1.0000000  0.0000000  0.0000000 )
                  (  0.0000000 -1.0000000  0.0000000 )
                  (  0.0000000  0.0000000 -1.0000000 )


      isym =  3      90 deg rotation - cart. axis [-1,0,0]       

 cryst.   s( 3) = (     1          0          0      )
                  (     0          0         -1      )
                  (     0          1          0      )

 cart.    s( 3) = (  1.0000000  0.0000000  0.0000000 )
                  (  0.0000000  0.0000000  1.0000000 )
                  (  0.0000000 -1.0000000  0.0000000 )


      isym =  4      90 deg rotation - cart. axis [1,0,0]        

 cryst.   s( 4) = (     1          0          0      )
                  (     0          0          1      )
                  (     0         -1          0      )

 cart.    s( 4) = (  1.0000000  0.0000000  0.0000000 )
                  (  0.0000000  0.0000000 -1.0000000 )
                  (  0.0000000  1.0000000  0.0000000 )


      isym =  5     inv. 180 deg rotation - cart. axis [0,0,1]   

 cryst.   s( 5) = (     1          0          0      )
                  (     0          1          0      )
                  (     0          0         -1      )

 cart.    s( 5) = (  1.0000000  0.0000000  0.0000000 )
                  (  0.0000000  1.0000000  0.0000000 )
                  (  0.0000000  0.0000000 -1.0000000 )


      isym =  6     inv. 180 deg rotation - cart. axis [0,1,0]   

 cryst.   s( 6) = (     1          0          0      )
                  (     0         -1          0      )
                  (     0          0          1      )

 cart.    s( 6) = (  1.0000000  0.0000000  0.0000000 )
                  (  0.0000000 -1.0000000  0.0000000 )
                  (  0.0000000  0.0000000  1.0000000 )


      isym =  7     inv. 180 deg rotation - cart. axis [0,1,1]   

 cryst.   s( 7) = (     1          0          0      )
                  (     0          0         -1      )
                  (     0         -1          0      )

 cart.    s( 7) = (  1.0000000  0.0000000  0.0000000 )
                  (  0.0000000  0.0000000 -1.0000000 )
                  (  0.0000000 -1.0000000  0.0000000 )


      isym =  8     inv. 180 deg rotation - cart. axis [0,1,-1]  

 cryst.   s( 8) = (     1          0          0      )
                  (     0          0          1      )
                  (     0          1          0      )

 cart.    s( 8) = (  1.0000000  0.0000000  0.0000000 )
                  (  0.0000000  0.0000000  1.0000000 )
                  (  0.0000000  1.0000000  0.0000000 )


     point group C_4v (4mm) 
     there are  5 classes
     the character table:

       E     2C4   C2    2s_v  2s_d 
A_1    1.00  1.00  1.00  1.00  1.00
A_2    1.00  1.00  1.00 -1.00 -1.00
B_1    1.00 -1.00  1.00  1.00 -1.00
B_2    1.00 -1.00  1.00 -1.00  1.00
E      2.00  0.00 -2.00  0.00  0.00

     the symmetry operations in each class and the name of the first element:

     E        1
          identity                                               
     2C4      3    4
           90 deg rotation - cart. axis [-1,0,0]                 
     C2       2
          180 deg rotation - cart. axis [1,0,0]                  
     2s_v     5    6
          inv. 180 deg rotation - cart. axis [0,0,1]             
     2s_d     7    8
          inv. 180 deg rotation - cart. axis [0,1,1]             

   Cartesian axes

     site n.     atom                  positions (alat units)
         1           H   tau(   1) = (   0.0000000   0.0000000   0.0000000  )
         2           H   tau(   2) = (   0.0503927   0.0000000   0.0000000  )

   Crystallographic axes

     site n.     atom                  positions (cryst. coord.)
         1           H   tau(   1) = (  0.0000000  0.0000000  0.0000000  )
         2           H   tau(   2) = (  0.0503927  0.0000000  0.0000000  )

     number of k points=     1
                       cart. coord. in units 2pi/alat
        k(    1) = (  -0.5000000  -0.5000000  -0.5000000), wk =   2.0000000

                       cryst. coord.
        k(    1) = (  -0.5000000  -0.5000000  -0.5000000), wk =   2.0000000

     Dense  grid:   115313 G-vectors     FFT dimensions: (  64,  64,  64)

     Dynamical RAM for                 wfc:       0.44 MB

     Dynamical RAM for     wfc (w. buffer):       0.44 MB

     Dynamical RAM for           str. fact:       1.76 MB

     Dynamical RAM for           local pot:       0.00 MB

     Dynamical RAM for          nlocal pot:       0.44 MB

     Dynamical RAM for                qrad:       0.00 MB

     Dynamical RAM for          rho,v,vnew:      11.28 MB

     Dynamical RAM for               rhoin:       3.76 MB

     Dynamical RAM for            rho*nmix:      28.15 MB

     Dynamical RAM for           G-vectors:       7.48 MB

     Dynamical RAM for          h,s,v(r/c):       0.00 MB

     Dynamical RAM for          <psi|beta>:       0.00 MB

     Dynamical RAM for                 psi:       0.88 MB

     Dynamical RAM for                hpsi:       0.88 MB

     Dynamical RAM for                spsi:       0.88 MB

     Dynamical RAM for      wfcinit/wfcrot:       0.88 MB

     Dynamical RAM for           addusdens:      10.56 MB

     Dynamical RAM for          addusforce:      14.96 MB

     Estimated static dynamical RAM per process >      38.68 MB

     Estimated max dynamical RAM per process >      81.79 MB

     Initial potential from superposition of free atoms

     starting charge       2.0000, renormalised to       2.0000

     negative rho (up, down):  2.026E-01 0.000E+00
     Starting wfcs are    2 randomized atomic wfcs

     total cpu time spent up to now is        0.2 secs

     Self-consistent Calculation

     iteration #  1     ecut=    10.00 Ry     beta= 0.70
     Davidson diagonalization with overlap

---- Real-time Memory Report at c_bands before calling an iterative solver
            81 MiB given to the printing process from OS
             0 MiB allocation reported by mallinfo(arena+hblkhd)
           512 MiB available memory on the node where the printing process lives
------------------
     ethr =  1.00E-02,  avg # of iterations =  5.0

     negative rho (up, down):  2.880E-01 0.000E+00

     total cpu time spent up to now is        0.5 secs

     total energy              =      -2.24832336 Ry
     estimated scf accuracy    <       0.09714685 Ry

     iteration #  2     ecut=    10.00 Ry     beta= 0.70
     Davidson diagonalization with overlap

---- Real-time Memory Report at c_bands before calling an iterative solver
           101 MiB given to the printing process from OS
             0 MiB allocation reported by mallinfo(arena+hblkhd)
           472 MiB available memory on the node where the printing process lives
------------------
     ethr =  4.86E-03,  avg # of iterations =  1.0

     negative rho (up, down):  3.047E-01 0.000E+00

     total cpu time spent up to now is        0.7 secs

     total energy              =      -2.24715046 Ry
     estimated scf accuracy    <       0.00147918 Ry

     iteration #  3     ecut=    10.00 Ry     beta= 0.70
     Davidson diagonalization with overlap

---- Real-time Memory Report at c_bands before calling an iterative solver
           104 MiB given to the printing process from OS
             0 MiB allocation reported by mallinfo(arena+hblkhd)
           469 MiB available memory on the node where the printing process lives
------------------
     ethr =  7.40E-05,  avg # of iterations =  9.0

     negative rho (up, down):  3.031E-01 0.000E+00

     total cpu time spent up to now is        0.9 secs

     total energy              =      -2.24832835 Ry
     estimated scf accuracy    <       0.00003546 Ry

     iteration #  4     ecut=    10.00 Ry     beta= 0.70
     Davidson diagonalization with overlap

---- Real-time Memory Report at c_bands before calling an iterative solver
           108 MiB given to the printing process from OS
             0 MiB allocation reported by mallinfo(arena+hblkhd)
           465 MiB available memory on the node where the printing process lives
------------------
     ethr =  1.77E-06,  avg # of iterations =  5.0

     negative rho (up, down):  3.040E-01 0.000E+00

     total cpu time spent up to now is        1.2 secs

     total energy              =      -2.24795373 Ry
     estimated scf accuracy    <       0.00000545 Ry

     iteration #  5     ecut=    10.00 Ry     beta= 0.70
     Davidson diagonalization with overlap

---- Real-time Memory Report at c_bands before calling an iterative solver
           112 MiB given to the printing process from OS
             0 MiB allocation reported by mallinfo(arena+hblkhd)
           462 MiB available memory on the node where the printing process lives
------------------
     ethr =  2.72E-07,  avg # of iterations =  3.0

     negative rho (up, down):  3.040E-01 0.000E+00

     total cpu time spent up to now is        1.4 secs

     total energy              =      -2.24796969 Ry
     estimated scf accuracy    <       0.00000059 Ry

     iteration #  6     ecut=    10.00 Ry     beta= 0.70
     Davidson diagonalization with overlap

---- Real-time Memory Report at c_bands before calling an iterative solver
           115 MiB given to the printing process from OS
             0 MiB allocation reported by mallinfo(arena+hblkhd)
           458 MiB available memory on the node where the printing process lives
------------------
     ethr =  2.94E-08,  avg # of iterations =  3.0

     negative rho (up, down):  3.041E-01 0.000E+00

     total cpu time spent up to now is        1.6 secs

     total energy              =      -2.24786909 Ry
     estimated scf accuracy    <       0.00000201 Ry

     iteration #  7     ecut=    10.00 Ry     beta= 0.70
     Davidson diagonalization with overlap

---- Real-time Memory Report at c_bands before calling an iterative solver
           119 MiB given to the printing process from OS
             0 MiB allocation reported by mallinfo(arena+hblkhd)
           455 MiB available memory on the node where the printing process lives
------------------
     ethr =  2.94E-08,  avg # of iterations =  4.0

     negative rho (up, down):  3.040E-01 0.000E+00

     total cpu time spent up to now is        1.8 secs

     total energy              =      -2.24793844 Ry
     estimated scf accuracy    <       0.00000004 Ry

     iteration #  8     ecut=    10.00 Ry     beta= 0.70
     Davidson diagonalization with overlap

---- Real-time Memory Report at c_bands before calling an iterative solver
           122 MiB given to the printing process from OS
             0 MiB allocation reported by mallinfo(arena+hblkhd)
           451 MiB available memory on the node where the printing process lives
------------------
     ethr =  1.89E-09,  avg # of iterations =  4.0

     negative rho (up, down):  3.040E-01 0.000E+00

     total cpu time spent up to now is        2.1 secs

     total energy              =      -2.24795080 Ry
     estimated scf accuracy    <       0.00000011 Ry

     iteration #  9     ecut=    10.00 Ry     beta= 0.70
     Davidson diagonalization with overlap

---- Real-time Memory Report at c_bands before calling an iterative solver
           125 MiB given to the printing process from OS
             0 MiB allocation reported by mallinfo(arena+hblkhd)
           448 MiB available memory on the node where the printing process lives
------------------
     ethr =  1.89E-09,  avg # of iterations =  4.0

     negative rho (up, down):  3.040E-01 0.000E+00

     total cpu time spent up to now is        2.3 secs

     total energy              =      -2.24796395 Ry
     estimated scf accuracy    <       0.00000078 Ry

     iteration # 10     ecut=    10.00 Ry     beta= 0.70
     Davidson diagonalization with overlap

---- Real-time Memory Report at c_bands before calling an iterative solver
           129 MiB given to the printing process from OS
             0 MiB allocation reported by mallinfo(arena+hblkhd)
           444 MiB available memory on the node where the printing process lives
------------------
     ethr =  1.89E-09,  avg # of iterations =  3.0

     negative rho (up, down):  3.040E-01 0.000E+00

     total cpu time spent up to now is        2.5 secs

     total energy              =      -2.24797093 Ry
     estimated scf accuracy    <       0.00000058 Ry

     iteration # 11     ecut=    10.00 Ry     beta= 0.70
     Davidson diagonalization with overlap

---- Real-time Memory Report at c_bands before calling an iterative solver
           129 MiB given to the printing process from OS
             0 MiB allocation reported by mallinfo(arena+hblkhd)
           444 MiB available memory on the node where the printing process lives
------------------
     ethr =  1.89E-09,  avg # of iterations =  4.0

     negative rho (up, down):  3.040E-01 0.000E+00

     total cpu time spent up to now is        2.8 secs

     total energy              =      -2.24795345 Ry
     estimated scf accuracy    <       0.00000002 Ry

     iteration # 12     ecut=    10.00 Ry     beta= 0.70
     Davidson diagonalization with overlap

---- Real-time Memory Report at c_bands before calling an iterative solver
           129 MiB given to the printing process from OS
             0 MiB allocation reported by mallinfo(arena+hblkhd)
           444 MiB available memory on the node where the printing process lives
------------------
     ethr =  9.71E-10,  avg # of iterations =  4.0

     negative rho (up, down):  3.040E-01 0.000E+00

     total cpu time spent up to now is        3.0 secs

     total energy              =      -2.24797886 Ry
     estimated scf accuracy    <       0.00000007 Ry

     iteration # 13     ecut=    10.00 Ry     beta= 0.70
     Davidson diagonalization with overlap

---- Real-time Memory Report at c_bands before calling an iterative solver
           129 MiB given to the printing process from OS
             0 MiB allocation reported by mallinfo(arena+hblkhd)
           444 MiB available memory on the node where the printing process lives
------------------
     ethr =  9.71E-10,  avg # of iterations =  4.0

     negative rho (up, down):  3.040E-01 0.000E+00

     total cpu time spent up to now is        3.2 secs

     total energy              =      -2.24797643 Ry
     estimated scf accuracy    <       0.00000006 Ry

     iteration # 14     ecut=    10.00 Ry     beta= 0.70
     Davidson diagonalization with overlap

---- Real-time Memory Report at c_bands before calling an iterative solver
           129 MiB given to the printing process from OS
             0 MiB allocation reported by mallinfo(arena+hblkhd)
           444 MiB available memory on the node where the printing process lives
------------------
     ethr =  9.71E-10,  avg # of iterations =  3.0

     negative rho (up, down):  3.040E-01 0.000E+00

     total cpu time spent up to now is        3.4 secs

     total energy              =      -2.24796130 Ry
     estimated scf accuracy    <       0.00000012 Ry

     iteration # 15     ecut=    10.00 Ry     beta= 0.70
     Davidson diagonalization with overlap

---- Real-time Memory Report at c_bands before calling an iterative solver
           129 MiB given to the printing process from OS
             0 MiB allocation reported by mallinfo(arena+hblkhd)
           444 MiB available memory on the node where the printing process lives
------------------
     ethr =  9.71E-10,  avg # of iterations =  4.0

     negative rho (up, down):  3.040E-01 0.000E+00

     total cpu time spent up to now is        3.7 secs

     total energy              =      -2.24798268 Ry
     estimated scf accuracy    <       0.00000003 Ry

     iteration # 16     ecut=    10.00 Ry     beta= 0.70
     Davidson diagonalization with overlap

---- Real-time Memory Report at c_bands before calling an iterative solver
           129 MiB given to the printing process from OS
             0 MiB allocation reported by mallinfo(arena+hblkhd)
           444 MiB available memory on the node where the printing process lives
------------------
     ethr =  9.71E-10,  avg # of iterations =  4.0

     negative rho (up, down):  3.040E-01 0.000E+00

     total cpu time spent up to now is        3.9 secs

     total energy              =      -2.24797096 Ry
     estimated scf accuracy    <       0.00000010 Ry

     iteration # 17     ecut=    10.00 Ry     beta= 0.70
     Davidson diagonalization with overlap

---- Real-time Memory Report at c_bands before calling an iterative solver
           129 MiB given to the printing process from OS
             0 MiB allocation reported by mallinfo(arena+hblkhd)
           444 MiB available memory on the node where the printing process lives
------------------
     ethr =  9.71E-10,  avg # of iterations =  3.0

     negative rho (up, down):  3.040E-01 0.000E+00

     total cpu time spent up to now is        4.1 secs

     total energy              =      -2.24797512 Ry
     estimated scf accuracy    <       0.00000004 Ry

     iteration # 18     ecut=    10.00 Ry     beta= 0.70
     Davidson diagonalization with overlap

---- Real-time Memory Report at c_bands before calling an iterative solver
           129 MiB given to the printing process from OS
             0 MiB allocation reported by mallinfo(arena+hblkhd)
           444 MiB available memory on the node where the printing process lives
------------------
     ethr =  9.71E-10,  avg # of iterations =  3.0

     negative rho (up, down):  3.040E-01 0.000E+00

     total cpu time spent up to now is        4.3 secs

     total energy              =      -2.24798631 Ry
     estimated scf accuracy    <       0.00000001 Ry

     iteration # 19     ecut=    10.00 Ry     beta= 0.70
     Davidson diagonalization with overlap

---- Real-time Memory Report at c_bands before calling an iterative solver
           129 MiB given to the printing process from OS
             0 MiB allocation reported by mallinfo(arena+hblkhd)
           444 MiB available memory on the node where the printing process lives
------------------
     ethr =  5.13E-10,  avg # of iterations =  4.0

     negative rho (up, down):  3.040E-01 0.000E+00

     total cpu time spent up to now is        4.6 secs

     total energy              =      -2.24797263 Ry
     estimated scf accuracy    <       0.00000003 Ry

     iteration # 20     ecut=    10.00 Ry     beta= 0.70
     Davidson diagonalization with overlap

---- Real-time Memory Report at c_bands before calling an iterative solver
           129 MiB given to the printing process from OS
             0 MiB allocation reported by mallinfo(arena+hblkhd)
           444 MiB available memory on the node where the printing process lives
------------------
     ethr =  5.13E-10,  avg # of iterations =  4.0

     negative rho (up, down):  3.040E-01 0.000E+00

     total cpu time spent up to now is        4.8 secs

     End of self-consistent calculation

          k =-0.5000-0.5000-0.5000 ( 14400 PWs)   bands (ev):

   -10.4927  -1.4668

     occupation numbers 
     1.0000   0.0000

     highest occupied, lowest unoccupied level (ev):   -10.4927   -1.4668

!    total energy              =      -2.24796325 Ry
     estimated scf accuracy    <          8.1E-10 Ry

     The total energy is the sum of the following terms:
     one-electron contribution =      -4.03161952 Ry
     hartree contribution      =       2.17751180 Ry
     xc contribution           =      -1.33884812 Ry
     ewald contribution        =       0.94499259 Ry

     convergence has been achieved in  20 iterations

     Forces acting on atoms (cartesian axes, Ry/au):

     atom    1 type  1   force =     0.16532189    0.00000000    0.00000000
     atom    2 type  1   force =    -0.16532189    0.00000000    0.00000000
     The non-local contrib.  to forces
     atom    1 type  1   force =     0.19638207    0.00000000    0.00000000
     atom    2 type  1   force =    -0.18683443    0.00000000    0.00000000
     The ionic contribution  to forces
     atom    1 type  1   force =    -0.87461642    0.00000000   -0.00000000
     atom    2 type  1   force =     0.87461642    0.00000000   -0.00000000
     The local contribution  to forces
     atom    1 type  1   force =     0.84783184    0.00000000    0.00000000
     atom    2 type  1   force =    -0.84775691    0.00000000    0.00000000
     The core correction contribution to forces
     atom    1 type  1   force =     0.00000000    0.00000000    0.00000000
     atom    2 type  1   force =     0.00000000    0.00000000    0.00000000
     The Hubbard contrib.    to forces
     atom    1 type  1   force =     0.00000000    0.00000000    0.00000000
     atom    2 type  1   force =     0.00000000    0.00000000    0.00000000
     The SCF correction term to forces
     atom    1 type  1   force =     0.00076322   -0.00000000    0.00000000
     atom    2 type  1   force =    -0.00030813   -0.00000000    0.00000000

     Total force =     0.233800     Total SCF correction =     0.000823

     BFGS Geometry Optimization
     Energy error            =      0.0E+00 Ry
     Gradient error          =      1.7E-01 Ry/Bohr

     number of scf cycles    =   1
     number of bfgs steps    =   0

     energy             new  =      -2.2479632500 Ry

     new trust radius        =       0.1653218850 bohr
     new conv_thr            =       0.0000000100 Ry


ATOMIC_POSITIONS (angstrom)
H             0.0874845740        0.0000000000        0.0000000000
H             0.7125154260        0.0000000000        0.0000000000



     Writing config-only to output data dir ./.save/
     NEW-OLD atomic charge density approx. for the potential

     negative rho (up, down):  3.144E-01 0.000E+00

     total cpu time spent up to now is        5.0 secs

     Self-consistent Calculation

     iteration #  1     ecut=    10.00 Ry     beta= 0.70
     Davidson diagonalization with overlap

---- Real-time Memory Report at c_bands before calling an iterative solver
           131 MiB given to the printing process from OS
             0 MiB allocation reported by mallinfo(arena+hblkhd)
           508 MiB available memory on the node where the printing process lives
------------------
     ethr =  1.00E-06,  avg # of iterations =  8.0

     negative rho (up, down):  3.811E-01 0.000E+00

     total cpu time spent up to now is        5.3 secs

     total energy              =      -2.20412935 Ry
     estimated scf accuracy    <       0.00716831 Ry

     iteration #  2     ecut=    10.00 Ry     beta= 0.70
     Davidson diagonalization with overlap

---- Real-time Memory Report at c_bands before calling an iterative solver
           131 MiB given to the printing process from OS
             0 MiB allocation reported by mallinfo(arena+hblkhd)
           470 MiB available memory on the node where the printing process lives
------------------
     ethr =  3.58E-04,  avg # of iterations =  1.0

     negative rho (up, down):  3.984E-01 0.000E+00

     total cpu time spent up to now is        5.5 secs

     total energy              =      -2.19705724 Ry
     estimated scf accuracy    <       0.00009527 Ry

     iteration #  3     ecut=    10.00 Ry     beta= 0.70
     Davidson diagonalization with overlap

---- Real-time Memory Report at c_bands before calling an iterative solver
           131 MiB given to the printing process from OS
             0 MiB allocation reported by mallinfo(arena+hblkhd)
           467 MiB available memory on the node where the printing process lives
------------------
     ethr =  4.76E-06,  avg # of iterations =  5.0

     negative rho (up, down):  3.989E-01 0.000E+00

     total cpu time spent up to now is        5.7 secs

     total energy              =      -2.19686978 Ry
     estimated scf accuracy    <       0.00001113 Ry

     iteration #  4     ecut=    10.00 Ry     beta= 0.70
     Davidson diagonalization with overlap

---- Real-time Memory Report at c_bands before calling an iterative solver
           131 MiB given to the printing process from OS
             0 MiB allocation reported by mallinfo(arena+hblkhd)
           463 MiB available memory on the node where the printing process lives
------------------
     ethr =  5.57E-07,  avg # of iterations =  3.0

     negative rho (up, down):  4.011E-01 0.000E+00

     total cpu time spent up to now is        6.0 secs

     total energy              =      -2.19602457 Ry
     estimated scf accuracy    <       0.00000056 Ry

     iteration #  5     ecut=    10.00 Ry     beta= 0.70
     Davidson diagonalization with overlap

---- Real-time Memory Report at c_bands before calling an iterative solver
           131 MiB given to the printing process from OS
             0 MiB allocation reported by mallinfo(arena+hblkhd)
           460 MiB available memory on the node where the printing process lives
------------------
     ethr =  2.80E-08,  avg # of iterations =  4.0

     negative rho (up, down):  4.011E-01 0.000E+00

     total cpu time spent up to now is        6.2 secs

     total energy              =      -2.19604395 Ry
     estimated scf accuracy    <       0.00000026 Ry

     iteration #  6     ecut=    10.00 Ry     beta= 0.70
     Davidson diagonalization with overlap

---- Real-time Memory Report at c_bands before calling an iterative solver
           131 MiB given to the printing process from OS
             0 MiB allocation reported by mallinfo(arena+hblkhd)
           456 MiB available memory on the node where the printing process lives
------------------
     ethr =  1.29E-08,  avg # of iterations =  3.0

     negative rho (up, down):  4.012E-01 0.000E+00

     total cpu time spent up to now is        6.4 secs

     total energy              =      -2.19606846 Ry
     estimated scf accuracy    <       0.00000017 Ry

     iteration #  7     ecut=    10.00 Ry     beta= 0.70
     Davidson diagonalization with overlap

---- Real-time Memory Report at c_bands before calling an iterative solver
           131 MiB given to the printing process from OS
             0 MiB allocation reported by mallinfo(arena+hblkhd)
           453 MiB available memory on the node where the printing process lives
------------------
     ethr =  8.36E-09,  avg # of iterations =  2.0

     negative rho (up, down):  4.010E-01 0.000E+00

     total cpu time spent up to now is        6.6 secs

     total energy              =      -2.19608224 Ry
     estimated scf accuracy    <       0.00000021 Ry

     iteration #  8     ecut=    10.00 Ry     beta= 0.70
     Davidson diagonalization with overlap

---- Real-time Memory Report at c_bands before calling an iterative solver
           131 MiB given to the printing process from OS
             0 MiB allocation reported by mallinfo(arena+hblkhd)
           449 MiB available memory on the node where the printing process lives
------------------
     ethr =  8.36E-09,  avg # of iterations =  4.0

     negative rho (up, down):  4.009E-01 0.000E+00

     total cpu time spent up to now is        6.9 secs

     total energy              =      -2.19614195 Ry
     estimated scf accuracy    <       0.00000011 Ry

     iteration #  9     ecut=    10.00 Ry     beta= 0.70
     Davidson diagonalization with overlap

---- Real-time Memory Report at c_bands before calling an iterative solver
           131 MiB given to the printing process from OS
             0 MiB allocation reported by mallinfo(arena+hblkhd)
           446 MiB available memory on the node where the printing process lives
------------------
     ethr =  5.51E-09,  avg # of iterations =  3.0

     negative rho (up, down):  4.008E-01 0.000E+00

     total cpu time spent up to now is        7.1 secs

     total energy              =      -2.19614983 Ry
     estimated scf accuracy    <       0.00000016 Ry

     iteration # 10     ecut=    10.00 Ry     beta= 0.70
     Davidson diagonalization with overlap

---- Real-time Memory Report at c_bands before calling an iterative solver
           132 MiB given to the printing process from OS
             0 MiB allocation reported by mallinfo(arena+hblkhd)
           442 MiB available memory on the node where the printing process lives
------------------
     ethr =  5.51E-09,  avg # of iterations =  3.0

     negative rho (up, down):  4.005E-01 0.000E+00

     total cpu time spent up to now is        7.3 secs

     total energy              =      -2.19622978 Ry
     estimated scf accuracy    <       0.00000009 Ry

     iteration # 11     ecut=    10.00 Ry     beta= 0.70
     Davidson diagonalization with overlap

---- Real-time Memory Report at c_bands before calling an iterative solver
           132 MiB given to the printing process from OS
             0 MiB allocation reported by mallinfo(arena+hblkhd)
           442 MiB available memory on the node where the printing process lives
------------------
     ethr =  4.47E-09,  avg # of iterations =  3.0

     negative rho (up, down):  4.010E-01 0.000E+00

     total cpu time spent up to now is        7.5 secs

     total energy              =      -2.19608491 Ry
     estimated scf accuracy    <       0.00000025 Ry

     iteration # 12     ecut=    10.00 Ry     beta= 0.70
     Davidson diagonalization with overlap

---- Real-time Memory Report at c_bands before calling an iterative solver
           132 MiB given to the printing process from OS
             0 MiB allocation reported by mallinfo(arena+hblkhd)
           442 MiB available memory on the node where the printing process lives
------------------
     ethr =  4.47E-09,  avg # of iterations =  4.0

     negative rho (up, down):  4.014E-01 0.000E+00

     total cpu time spent up to now is        7.7 secs

     total energy              =      -2.19598316 Ry
     estimated scf accuracy    <       0.00000009 Ry

     iteration # 13     ecut=    10.00 Ry     beta= 0.70
     Davidson diagonalization with overlap

---- Real-time Memory Report at c_bands before calling an iterative solver
           132 MiB given to the printing process from OS
             0 MiB allocation reported by mallinfo(arena+hblkhd)
           442 MiB available memory on the node where the printing process lives
------------------
     ethr =  4.39E-09,  avg # of iterations =  4.0

     negative rho (up, down):  4.013E-01 0.000E+00

     total cpu time spent up to now is        8.0 secs

     total energy              =      -2.19604252 Ry
     estimated scf accuracy    <       0.00000041 Ry

     iteration # 14     ecut=    10.00 Ry     beta= 0.70
     Davidson diagonalization with overlap

---- Real-time Memory Report at c_bands before calling an iterative solver
           132 MiB given to the printing process from OS
             0 MiB allocation reported by mallinfo(arena+hblkhd)
           442 MiB available memory on the node where the printing process lives
------------------
     ethr =  4.39E-09,  avg # of iterations =  4.0

     negative rho (up, down):  4.012E-01 0.000E+00

     total cpu time spent up to now is        8.2 secs

     total energy              =      -2.19605792 Ry
     estimated scf accuracy    <       0.00000056 Ry

     iteration # 15     ecut=    10.00 Ry     beta= 0.70
     Davidson diagonalization with overlap

---- Real-time Memory Report at c_bands before calling an iterative solver
           132 MiB given to the printing process from OS
             0 MiB allocation reported by mallinfo(arena+hblkhd)
           442 MiB available memory on the node where the printing process lives
------------------
     ethr =  4.39E-09,  avg # of iterations =  2.0

     negative rho (up, down):  4.012E-01 0.000E+00

     total cpu time spent up to now is        8.4 secs

     total energy              =      -2.19607241 Ry
     estimated scf accuracy    <       0.00000058 Ry

     iteration # 16     ecut=    10.00 Ry     beta= 0.70
     Davidson diagonalization with overlap

---- Real-time Memory Report at c_bands before calling an iterative solver
           132 MiB given to the printing process from OS
             0 MiB allocation reported by mallinfo(arena+hblkhd)
           442 MiB available memory on the node where the printing process lives
------------------
     ethr =  4.39E-09,  avg # of iterations =  3.0

     negative rho (up, down):  4.008E-01 0.000E+00

     total cpu time spent up to now is        8.6 secs

     total energy              =      -2.19615538 Ry
     estimated scf accuracy    <       0.00000031 Ry

     iteration # 17     ecut=    10.00 Ry     beta= 0.70
     Davidson diagonalization with overlap

---- Real-time Memory Report at c_bands before calling an iterative solver
           132 MiB given to the printing process from OS
             0 MiB allocation reported by mallinfo(arena+hblkhd)
           442 MiB available memory on the node where the printing process lives
------------------
     ethr =  4.39E-09,  avg # of iterations =  3.0

     negative rho (up, down):  4.009E-01 0.000E+00

     total cpu time spent up to now is        8.9 secs

     total energy              =      -2.19615127 Ry
     estimated scf accuracy    <       0.00000004 Ry

     iteration # 18     ecut=    10.00 Ry     beta= 0.70
     Davidson diagonalization with overlap

---- Real-time Memory Report at c_bands before calling an iterative solver
           132 MiB given to the printing process from OS
             0 MiB allocation reported by mallinfo(arena+hblkhd)
           442 MiB available memory on the node where the printing process lives
------------------
     ethr =  1.99E-09,  avg # of iterations =  2.0

     negative rho (up, down):  4.009E-01 0.000E+00

     total cpu time spent up to now is        9.1 secs

     total energy              =      -2.19615041 Ry
     estimated scf accuracy    <       0.00000004 Ry

     iteration # 19     ecut=    10.00 Ry     beta= 0.70
     Davidson diagonalization with overlap

---- Real-time Memory Report at c_bands before calling an iterative solver
           132 MiB given to the printing process from OS
             0 MiB allocation reported by mallinfo(arena+hblkhd)
           442 MiB available memory on the node where the printing process lives
------------------
     ethr =  1.99E-09,  avg # of iterations =  1.0

     negative rho (up, down):  4.009E-01 0.000E+00

     total cpu time spent up to now is        9.3 secs

     total energy              =      -2.19613033 Ry
     estimated scf accuracy    <       0.00000004 Ry

     iteration # 20     ecut=    10.00 Ry     beta= 0.70
     Davidson diagonalization with overlap

---- Real-time Memory Report at c_bands before calling an iterative solver
           132 MiB given to the printing process from OS
             0 MiB allocation reported by mallinfo(arena+hblkhd)
           442 MiB available memory on the node where the printing process lives
------------------
     ethr =  1.99E-09,  avg # of iterations =  3.0

     negative rho (up, down):  4.010E-01 0.000E+00

     total cpu time spent up to now is        9.5 secs

     total energy              =      -2.19610216 Ry
     estimated scf accuracy    <       0.00000007 Ry

     iteration # 21     ecut=    10.00 Ry     beta= 0.70
     Davidson diagonalization with overlap

---- Real-time Memory Report at c_bands before calling an iterative solver
           132 MiB given to the printing process from OS
             0 MiB allocation reported by mallinfo(arena+hblkhd)
           442 MiB available memory on the node where the printing process lives
------------------
     ethr =  1.99E-09,  avg # of iterations =  3.0

     negative rho (up, down):  4.011E-01 0.000E+00

     total cpu time spent up to now is        9.7 secs

     total energy              =      -2.19609792 Ry
     estimated scf accuracy    <       0.00000015 Ry

     iteration # 22     ecut=    10.00 Ry     beta= 0.70
     Davidson diagonalization with overlap

---- Real-time Memory Report at c_bands before calling an iterative solver
           132 MiB given to the printing process from OS
             0 MiB allocation reported by mallinfo(arena+hblkhd)
           442 MiB available memory on the node where the printing process lives
------------------
     ethr =  1.99E-09,  avg # of iterations =  2.0

     negative rho (up, down):  4.010E-01 0.000E+00

     total cpu time spent up to now is        9.9 secs

     total energy              =      -2.19610892 Ry
     estimated scf accuracy    <       0.00000021 Ry

     iteration # 23     ecut=    10.00 Ry     beta= 0.70
     Davidson diagonalization with overlap

---- Real-time Memory Report at c_bands before calling an iterative solver
           132 MiB given to the printing process from OS
             0 MiB allocation reported by mallinfo(arena+hblkhd)
           442 MiB available memory on the node where the printing process lives
------------------
     ethr =  1.99E-09,  avg # of iterations =  2.0

     negative rho (up, down):  4.010E-01 0.000E+00

     total cpu time spent up to now is       10.2 secs

     total energy              =      -2.19612001 Ry
     estimated scf accuracy    <       0.00000015 Ry

     iteration # 24     ecut=    10.00 Ry     beta= 0.70
     Davidson diagonalization with overlap

---- Real-time Memory Report at c_bands before calling an iterative solver
           132 MiB given to the printing process from OS
             0 MiB allocation reported by mallinfo(arena+hblkhd)
           442 MiB available memory on the node where the printing process lives
------------------
     ethr =  1.99E-09,  avg # of iterations =  3.0

     negative rho (up, down):  4.010E-01 0.000E+00

     total cpu time spent up to now is       10.4 secs

     total energy              =      -2.19612282 Ry
     estimated scf accuracy    <       0.00000013 Ry

     iteration # 25     ecut=    10.00 Ry     beta= 0.70
     Davidson diagonalization with overlap

---- Real-time Memory Report at c_bands before calling an iterative solver
           132 MiB given to the printing process from OS
             0 MiB allocation reported by mallinfo(arena+hblkhd)
           441 MiB available memory on the node where the printing process lives
------------------
     ethr =  1.99E-09,  avg # of iterations =  2.0

     negative rho (up, down):  4.010E-01 0.000E+00

     total cpu time spent up to now is       10.6 secs

     total energy              =      -2.19612641 Ry
     estimated scf accuracy    <       0.00000012 Ry

     iteration # 26     ecut=    10.00 Ry     beta= 0.70
     Davidson diagonalization with overlap

---- Real-time Memory Report at c_bands before calling an iterative solver
           132 MiB given to the printing process from OS
             0 MiB allocation reported by mallinfo(arena+hblkhd)
           441 MiB available memory on the node where the printing process lives
------------------
     ethr =  1.99E-09,  avg # of iterations =  3.0

     negative rho (up, down):  4.012E-01 0.000E+00

     total cpu time spent up to now is       10.8 secs

     total energy              =      -2.19598304 Ry
     estimated scf accuracy    <       0.00000025 Ry

     iteration # 27     ecut=    10.00 Ry     beta= 0.70
     Davidson diagonalization with overlap

---- Real-time Memory Report at c_bands before calling an iterative solver
           132 MiB given to the printing process from OS
             0 MiB allocation reported by mallinfo(arena+hblkhd)
           441 MiB available memory on the node where the printing process lives
------------------
     ethr =  1.99E-09,  avg # of iterations =  5.0

     negative rho (up, down):  4.008E-01 0.000E+00

     total cpu time spent up to now is       11.1 secs

     total energy              =      -2.19606701 Ry
     estimated scf accuracy    <       0.00000096 Ry

     iteration # 28     ecut=    10.00 Ry     beta= 0.70
     Davidson diagonalization with overlap

---- Real-time Memory Report at c_bands before calling an iterative solver
           132 MiB given to the printing process from OS
             0 MiB allocation reported by mallinfo(arena+hblkhd)
           441 MiB available memory on the node where the printing process lives
------------------
     ethr =  1.99E-09,  avg # of iterations =  5.0

     negative rho (up, down):  4.007E-01 0.000E+00

     total cpu time spent up to now is       11.3 secs

     total energy              =      -2.19621367 Ry
     estimated scf accuracy    <       0.00000008 Ry

     iteration # 29     ecut=    10.00 Ry     beta= 0.70
     Davidson diagonalization with overlap

---- Real-time Memory Report at c_bands before calling an iterative solver
           132 MiB given to the printing process from OS
             0 MiB allocation reported by mallinfo(arena+hblkhd)
           441 MiB available memory on the node where the printing process lives
------------------
     ethr =  1.99E-09,  avg # of iterations =  3.0

     negative rho (up, down):  4.007E-01 0.000E+00

     total cpu time spent up to now is       11.5 secs

     total energy              =      -2.19619308 Ry
     estimated scf accuracy    <       0.00000018 Ry

     iteration # 30     ecut=    10.00 Ry     beta= 0.70
     Davidson diagonalization with overlap

---- Real-time Memory Report at c_bands before calling an iterative solver
           132 MiB given to the printing process from OS
             0 MiB allocation reported by mallinfo(arena+hblkhd)
           441 MiB available memory on the node where the printing process lives
------------------
     ethr =  1.99E-09,  avg # of iterations =  3.0

     negative rho (up, down):  4.007E-01 0.000E+00

     total cpu time spent up to now is       11.7 secs

     total energy              =      -2.19618410 Ry
     estimated scf accuracy    <       0.00000007 Ry

     iteration # 31     ecut=    10.00 Ry     beta= 0.70
     Davidson diagonalization with overlap

---- Real-time Memory Report at c_bands before calling an iterative solver
           132 MiB given to the printing process from OS
             0 MiB allocation reported by mallinfo(arena+hblkhd)
           441 MiB available memory on the node where the printing process lives
------------------
     ethr =  1.99E-09,  avg # of iterations =  3.0

     negative rho (up, down):  4.009E-01 0.000E+00

     total cpu time spent up to now is       12.0 secs

     total energy              =      -2.19613314 Ry
     estimated scf accuracy    <       0.00000003 Ry

     iteration # 32     ecut=    10.00 Ry     beta= 0.70
     Davidson diagonalization with overlap

---- Real-time Memory Report at c_bands before calling an iterative solver
           132 MiB given to the printing process from OS
             0 MiB allocation reported by mallinfo(arena+hblkhd)
           441 MiB available memory on the node where the printing process lives
------------------
     ethr =  1.44E-09,  avg # of iterations =  4.0

     negative rho (up, down):  4.008E-01 0.000E+00

     total cpu time spent up to now is       12.2 secs

     total energy              =      -2.19615151 Ry
     estimated scf accuracy    <       0.00000006 Ry

     iteration # 33     ecut=    10.00 Ry     beta= 0.70
     Davidson diagonalization with overlap

---- Real-time Memory Report at c_bands before calling an iterative solver
           132 MiB given to the printing process from OS
             0 MiB allocation reported by mallinfo(arena+hblkhd)
           441 MiB available memory on the node where the printing process lives
------------------
     ethr =  1.44E-09,  avg # of iterations =  3.0

     negative rho (up, down):  4.007E-01 0.000E+00

     total cpu time spent up to now is       12.4 secs

     total energy              =      -2.19619094 Ry
     estimated scf accuracy    <       0.00000003 Ry

     iteration # 34     ecut=    10.00 Ry     beta= 0.70
     Davidson diagonalization with overlap

---- Real-time Memory Report at c_bands before calling an iterative solver
           132 MiB given to the printing process from OS
             0 MiB allocation reported by mallinfo(arena+hblkhd)
           441 MiB available memory on the node where the printing process lives
------------------
     ethr =  1.44E-09,  avg # of iterations =  3.0

     negative rho (up, down):  4.007E-01 0.000E+00

     total cpu time spent up to now is       12.6 secs

     total energy              =      -2.19619358 Ry
     estimated scf accuracy    <       0.00000004 Ry

     iteration # 35     ecut=    10.00 Ry     beta= 0.70
     Davidson diagonalization with overlap

---- Real-time Memory Report at c_bands before calling an iterative solver
           132 MiB given to the printing process from OS
             0 MiB allocation reported by mallinfo(arena+hblkhd)
           441 MiB available memory on the node where the printing process lives
------------------
     ethr =  1.44E-09,  avg # of iterations =  2.0

     negative rho (up, down):  4.010E-01 0.000E+00

     total cpu time spent up to now is       12.9 secs

     total energy              =      -2.19609007 Ry
     estimated scf accuracy    <       0.00000004 Ry

     iteration # 36     ecut=    10.00 Ry     beta= 0.70
     Davidson diagonalization with overlap

---- Real-time Memory Report at c_bands before calling an iterative solver
           132 MiB given to the printing process from OS
             0 MiB allocation reported by mallinfo(arena+hblkhd)
           441 MiB available memory on the node where the printing process lives
------------------
     ethr =  1.44E-09,  avg # of iterations =  4.0

     negative rho (up, down):  4.012E-01 0.000E+00

     total cpu time spent up to now is       13.1 secs

     total energy              =      -2.19604902 Ry
     estimated scf accuracy    <       0.00000007 Ry

     iteration # 37     ecut=    10.00 Ry     beta= 0.70
     Davidson diagonalization with overlap

---- Real-time Memory Report at c_bands before calling an iterative solver
           132 MiB given to the printing process from OS
             0 MiB allocation reported by mallinfo(arena+hblkhd)
           441 MiB available memory on the node where the printing process lives
------------------
     ethr =  1.44E-09,  avg # of iterations =  4.0

     negative rho (up, down):  3.985E-01 0.000E+00

     total cpu time spent up to now is       13.3 secs

     total energy              =      -2.19679841 Ry
     estimated scf accuracy    <       0.00000014 Ry

     iteration # 38     ecut=    10.00 Ry     beta= 0.70
     Davidson diagonalization with overlap

---- Real-time Memory Report at c_bands before calling an iterative solver
           132 MiB given to the printing process from OS
             0 MiB allocation reported by mallinfo(arena+hblkhd)
           441 MiB available memory on the node where the printing process lives
------------------
     ethr =  1.44E-09,  avg # of iterations =  5.0

     negative rho (up, down):  4.004E-01 0.000E+00

     total cpu time spent up to now is       13.6 secs

     total energy              =      -2.19621809 Ry
     estimated scf accuracy    <       0.00002533 Ry

     iteration # 39     ecut=    10.00 Ry     beta= 0.70
     Davidson diagonalization with overlap

---- Real-time Memory Report at c_bands before calling an iterative solver
           132 MiB given to the printing process from OS
             0 MiB allocation reported by mallinfo(arena+hblkhd)
           441 MiB available memory on the node where the printing process lives
------------------
     ethr =  1.44E-09,  avg # of iterations =  4.0

     negative rho (up, down):  4.027E-01 0.000E+00

     total cpu time spent up to now is       13.8 secs

     total energy              =      -2.19523786 Ry
     estimated scf accuracy    <       0.00000023 Ry

     iteration # 40     ecut=    10.00 Ry     beta= 0.70
     Davidson diagonalization with overlap

---- Real-time Memory Report at c_bands before calling an iterative solver
           132 MiB given to the printing process from OS
             0 MiB allocation reported by mallinfo(arena+hblkhd)
           441 MiB available memory on the node where the printing process lives
------------------
     ethr =  1.44E-09,  avg # of iterations =  5.0

     negative rho (up, down):  4.026E-01 0.000E+00

     total cpu time spent up to now is       14.0 secs

     total energy              =      -2.19535446 Ry
     estimated scf accuracy    <       0.00001028 Ry

     iteration # 41     ecut=    10.00 Ry     beta= 0.70
     Davidson diagonalization with overlap

---- Real-time Memory Report at c_bands before calling an iterative solver
           132 MiB given to the printing process from OS
             0 MiB allocation reported by mallinfo(arena+hblkhd)
           441 MiB available memory on the node where the printing process lives
------------------
     ethr =  1.44E-09,  avg # of iterations =  4.0

     negative rho (up, down):  4.031E-01 0.000E+00

     total cpu time spent up to now is       14.3 secs

     total energy              =      -2.19521262 Ry
     estimated scf accuracy    <       0.00000884 Ry

     iteration # 42     ecut=    10.00 Ry     beta= 0.70
     Davidson diagonalization with overlap

---- Real-time Memory Report at c_bands before calling an iterative solver
           132 MiB given to the printing process from OS
             0 MiB allocation reported by mallinfo(arena+hblkhd)
           441 MiB available memory on the node where the printing process lives
------------------
     ethr =  1.44E-09,  avg # of iterations =  5.0

     negative rho (up, down):  4.017E-01 0.000E+00

     total cpu time spent up to now is       14.5 secs

     total energy              =      -2.19578076 Ry
     estimated scf accuracy    <       0.00002585 Ry

     iteration # 43     ecut=    10.00 Ry     beta= 0.70
     Davidson diagonalization with overlap

---- Real-time Memory Report at c_bands before calling an iterative solver
           132 MiB given to the printing process from OS
             0 MiB allocation reported by mallinfo(arena+hblkhd)
           441 MiB available memory on the node where the printing process lives
------------------
     ethr =  1.44E-09,  avg # of iterations =  5.0

     negative rho (up, down):  4.006E-01 0.000E+00

     total cpu time spent up to now is       14.7 secs

     total energy              =      -2.19600536 Ry
     estimated scf accuracy    <       0.00000424 Ry

     iteration # 44     ecut=    10.00 Ry     beta= 0.70
     Davidson diagonalization with overlap

---- Real-time Memory Report at c_bands before calling an iterative solver
           132 MiB given to the printing process from OS
             0 MiB allocation reported by mallinfo(arena+hblkhd)
           441 MiB available memory on the node where the printing process lives
------------------
     ethr =  1.44E-09,  avg # of iterations =  4.0

     negative rho (up, down):  4.007E-01 0.000E+00

     total cpu time spent up to now is       15.0 secs

     total energy              =      -2.19620384 Ry
     estimated scf accuracy    <       0.00000007 Ry

     iteration # 45     ecut=    10.00 Ry     beta= 0.70
     Davidson diagonalization with overlap

---- Real-time Memory Report at c_bands before calling an iterative solver
           132 MiB given to the printing process from OS
             0 MiB allocation reported by mallinfo(arena+hblkhd)
           441 MiB available memory on the node where the printing process lives
------------------
     ethr =  1.44E-09,  avg # of iterations =  3.0

     negative rho (up, down):  4.012E-01 0.000E+00

     total cpu time spent up to now is       15.2 secs

     total energy              =      -2.19598594 Ry
     estimated scf accuracy    <       0.00000011 Ry

     iteration # 46     ecut=    10.00 Ry     beta= 0.70
     Davidson diagonalization with overlap

---- Real-time Memory Report at c_bands before calling an iterative solver
           132 MiB given to the printing process from OS
             0 MiB allocation reported by mallinfo(arena+hblkhd)
           441 MiB available memory on the node where the printing process lives
------------------
     ethr =  1.44E-09,  avg # of iterations =  4.0

     negative rho (up, down):  4.014E-01 0.000E+00

     total cpu time spent up to now is       15.4 secs

     total energy              =      -2.19604872 Ry
     estimated scf accuracy    <       0.00000025 Ry

     iteration # 47     ecut=    10.00 Ry     beta= 0.70
     Davidson diagonalization with overlap

---- Real-time Memory Report at c_bands before calling an iterative solver
           132 MiB given to the printing process from OS
             0 MiB allocation reported by mallinfo(arena+hblkhd)
           441 MiB available memory on the node where the printing process lives
------------------
     ethr =  1.44E-09,  avg # of iterations =  4.0

     negative rho (up, down):  4.012E-01 0.000E+00

     total cpu time spent up to now is       15.7 secs

     total energy              =      -2.19606139 Ry
     estimated scf accuracy    <       0.00000092 Ry

     iteration # 48     ecut=    10.00 Ry     beta= 0.70
     Davidson diagonalization with overlap

---- Real-time Memory Report at c_bands before calling an iterative solver
           132 MiB given to the printing process from OS
             0 MiB allocation reported by mallinfo(arena+hblkhd)
           441 MiB available memory on the node where the printing process lives
------------------
     ethr =  1.44E-09,  avg # of iterations =  4.0

     negative rho (up, down):  4.010E-01 0.000E+00

     total cpu time spent up to now is       15.9 secs

     total energy              =      -2.19610858 Ry
     estimated scf accuracy    <       0.00000044 Ry

     iteration # 49     ecut=    10.00 Ry     beta= 0.70
     Davidson diagonalization with overlap

---- Real-time Memory Report at c_bands before calling an iterative solver
           132 MiB given to the printing process from OS
             0 MiB allocation reported by mallinfo(arena+hblkhd)
           441 MiB available memory on the node where the printing process lives
------------------
     ethr =  1.44E-09,  avg # of iterations =  4.0

     negative rho (up, down):  4.009E-01 0.000E+00

     total cpu time spent up to now is       16.1 secs

     total energy              =      -2.19615154 Ry
     estimated scf accuracy    <       0.00000012 Ry

     iteration # 50     ecut=    10.00 Ry     beta= 0.70
     Davidson diagonalization with overlap

---- Real-time Memory Report at c_bands before calling an iterative solver
           132 MiB given to the printing process from OS
             0 MiB allocation reported by mallinfo(arena+hblkhd)
           441 MiB available memory on the node where the printing process lives
------------------
     ethr =  1.44E-09,  avg # of iterations =  3.0

     negative rho (up, down):  4.008E-01 0.000E+00

     total cpu time spent up to now is       16.3 secs

     total energy              =      -2.19617003 Ry
     estimated scf accuracy    <       0.00000008 Ry

     iteration # 51     ecut=    10.00 Ry     beta= 0.70
     Davidson diagonalization with overlap

---- Real-time Memory Report at c_bands before calling an iterative solver
           132 MiB given to the printing process from OS
             0 MiB allocation reported by mallinfo(arena+hblkhd)
           441 MiB available memory on the node where the printing process lives
------------------
     ethr =  1.44E-09,  avg # of iterations =  3.0

     negative rho (up, down):  4.008E-01 0.000E+00

     total cpu time spent up to now is       16.6 secs

     total energy              =      -2.19616382 Ry
     estimated scf accuracy    <       0.00000008 Ry

     iteration # 52     ecut=    10.00 Ry     beta= 0.70
     Davidson diagonalization with overlap

---- Real-time Memory Report at c_bands before calling an iterative solver
           132 MiB given to the printing process from OS
             0 MiB allocation reported by mallinfo(arena+hblkhd)
           441 MiB available memory on the node where the printing process lives
------------------
     ethr =  1.44E-09,  avg # of iterations =  2.0

     negative rho (up, down):  4.010E-01 0.000E+00

     total cpu time spent up to now is       16.8 secs

     total energy              =      -2.19611110 Ry
     estimated scf accuracy    <       0.00000007 Ry

     iteration # 53     ecut=    10.00 Ry     beta= 0.70
     Davidson diagonalization with overlap

---- Real-time Memory Report at c_bands before calling an iterative solver
           132 MiB given to the printing process from OS
             0 MiB allocation reported by mallinfo(arena+hblkhd)
           441 MiB available memory on the node where the printing process lives
------------------
     ethr =  1.44E-09,  avg # of iterations =  4.0

     negative rho (up, down):  4.008E-01 0.000E+00

     total cpu time spent up to now is       17.0 secs

     total energy              =      -2.19616828 Ry
     estimated scf accuracy    <       0.00000008 Ry

     iteration # 54     ecut=    10.00 Ry     beta= 0.70
     Davidson diagonalization with overlap

---- Real-time Memory Report at c_bands before calling an iterative solver
           132 MiB given to the printing process from OS
             0 MiB allocation reported by mallinfo(arena+hblkhd)
           441 MiB available memory on the node where the printing process lives
------------------
     ethr =  1.44E-09,  avg # of iterations =  4.0

     negative rho (up, down):  4.008E-01 0.000E+00

     total cpu time spent up to now is       17.2 secs

     total energy              =      -2.19617718 Ry
     estimated scf accuracy    <       0.00000009 Ry

     iteration # 55     ecut=    10.00 Ry     beta= 0.70
     Davidson diagonalization with overlap

---- Real-time Memory Report at c_bands before calling an iterative solver
           132 MiB given to the printing process from OS
             0 MiB allocation reported by mallinfo(arena+hblkhd)
           441 MiB available memory on the node where the printing process lives
------------------
     ethr =  1.44E-09,  avg # of iterations =  2.0

     negative rho (up, down):  4.008E-01 0.000E+00

     total cpu time spent up to now is       17.4 secs

     total energy              =      -2.19615557 Ry
     estimated scf accuracy    <       0.00000009 Ry

     iteration # 56     ecut=    10.00 Ry     beta= 0.70
     Davidson diagonalization with overlap

---- Real-time Memory Report at c_bands before calling an iterative solver
           132 MiB given to the printing process from OS
             0 MiB allocation reported by mallinfo(arena+hblkhd)
           441 MiB available memory on the node where the printing process lives
------------------
     ethr =  1.44E-09,  avg # of iterations =  3.0

     negative rho (up, down):  4.009E-01 0.000E+00

     total cpu time spent up to now is       17.7 secs

     total energy              =      -2.19615671 Ry
     estimated scf accuracy    <       0.00000004 Ry

     iteration # 57     ecut=    10.00 Ry     beta= 0.70
     Davidson diagonalization with overlap

---- Real-time Memory Report at c_bands before calling an iterative solver
           132 MiB given to the printing process from OS
             0 MiB allocation reported by mallinfo(arena+hblkhd)
           441 MiB available memory on the node where the printing process lives
------------------
     ethr =  1.44E-09,  avg # of iterations =  3.0

     negative rho (up, down):  4.009E-01 0.000E+00

     total cpu time spent up to now is       17.9 secs

     total energy              =      -2.19613637 Ry
     estimated scf accuracy    <       0.00000008 Ry

     iteration # 58     ecut=    10.00 Ry     beta= 0.70
     Davidson diagonalization with overlap

---- Real-time Memory Report at c_bands before calling an iterative solver
           132 MiB given to the printing process from OS
             0 MiB allocation reported by mallinfo(arena+hblkhd)
           441 MiB available memory on the node where the printing process lives
------------------
     ethr =  1.44E-09,  avg # of iterations =  3.0

     negative rho (up, down):  4.012E-01 0.000E+00

     total cpu time spent up to now is       18.1 secs

     total energy              =      -2.19607078 Ry
     estimated scf accuracy    <       0.00000004 Ry

     iteration # 59     ecut=    10.00 Ry     beta= 0.70
     Davidson diagonalization with overlap

---- Real-time Memory Report at c_bands before calling an iterative solver
           132 MiB given to the printing process from OS
             0 MiB allocation reported by mallinfo(arena+hblkhd)
           441 MiB available memory on the node where the printing process lives
------------------
     ethr =  1.44E-09,  avg # of iterations =  3.0

     negative rho (up, down):  4.016E-01 0.000E+00

     total cpu time spent up to now is       18.3 secs

     total energy              =      -2.19574898 Ry
     estimated scf accuracy    <       0.00000024 Ry

     iteration # 60     ecut=    10.00 Ry     beta= 0.70
     Davidson diagonalization with overlap

---- Real-time Memory Report at c_bands before calling an iterative solver
           132 MiB given to the printing process from OS
             0 MiB allocation reported by mallinfo(arena+hblkhd)
           441 MiB available memory on the node where the printing process lives
------------------
     ethr =  1.44E-09,  avg # of iterations =  5.0

     negative rho (up, down):  4.005E-01 0.000E+00

     total cpu time spent up to now is       18.6 secs

     total energy              =      -2.19604754 Ry
     estimated scf accuracy    <       0.00000051 Ry

     iteration # 61     ecut=    10.00 Ry     beta= 0.70
     Davidson diagonalization with overlap

---- Real-time Memory Report at c_bands before calling an iterative solver
           132 MiB given to the printing process from OS
             0 MiB allocation reported by mallinfo(arena+hblkhd)
           441 MiB available memory on the node where the printing process lives
------------------
     ethr =  1.44E-09,  avg # of iterations =  5.0

     negative rho (up, down):  4.004E-01 0.000E+00

     total cpu time spent up to now is       18.8 secs

     total energy              =      -2.19628800 Ry
     estimated scf accuracy    <       0.00000031 Ry

     iteration # 62     ecut=    10.00 Ry     beta= 0.70
     Davidson diagonalization with overlap

---- Real-time Memory Report at c_bands before calling an iterative solver
           132 MiB given to the printing process from OS
             0 MiB allocation reported by mallinfo(arena+hblkhd)
           441 MiB available memory on the node where the printing process lives
------------------
     ethr =  1.44E-09,  avg # of iterations =  3.0

     negative rho (up, down):  4.008E-01 0.000E+00

     total cpu time spent up to now is       19.0 secs

     total energy              =      -2.19614370 Ry
     estimated scf accuracy    <       0.00000045 Ry

     iteration # 63     ecut=    10.00 Ry     beta= 0.70
     Davidson diagonalization with overlap

---- Real-time Memory Report at c_bands before calling an iterative solver
           132 MiB given to the printing process from OS
             0 MiB allocation reported by mallinfo(arena+hblkhd)
           441 MiB available memory on the node where the printing process lives
------------------
     ethr =  1.44E-09,  avg # of iterations =  4.0

     negative rho (up, down):  4.008E-01 0.000E+00

     total cpu time spent up to now is       19.3 secs

     total energy              =      -2.19616726 Ry
     estimated scf accuracy    <       0.00000005 Ry

     iteration # 64     ecut=    10.00 Ry     beta= 0.70
     Davidson diagonalization with overlap

---- Real-time Memory Report at c_bands before calling an iterative solver
           132 MiB given to the printing process from OS
             0 MiB allocation reported by mallinfo(arena+hblkhd)
           441 MiB available memory on the node where the printing process lives
------------------
     ethr =  1.44E-09,  avg # of iterations =  2.0

     negative rho (up, down):  4.007E-01 0.000E+00

     total cpu time spent up to now is       19.5 secs

     total energy              =      -2.19617988 Ry
     estimated scf accuracy    <       0.00000007 Ry

     iteration # 65     ecut=    10.00 Ry     beta= 0.70
     Davidson diagonalization with overlap

---- Real-time Memory Report at c_bands before calling an iterative solver
           132 MiB given to the printing process from OS
             0 MiB allocation reported by mallinfo(arena+hblkhd)
           441 MiB available memory on the node where the printing process lives
------------------
     ethr =  1.44E-09,  avg # of iterations =  3.0

     negative rho (up, down):  4.009E-01 0.000E+00

     total cpu time spent up to now is       19.7 secs

     total energy              =      -2.19613143 Ry
     estimated scf accuracy    <       0.00000007 Ry

     iteration # 66     ecut=    10.00 Ry     beta= 0.70
     Davidson diagonalization with overlap

---- Real-time Memory Report at c_bands before calling an iterative solver
           132 MiB given to the printing process from OS
             0 MiB allocation reported by mallinfo(arena+hblkhd)
           441 MiB available memory on the node where the printing process lives
------------------
     ethr =  1.44E-09,  avg # of iterations =  3.0

     negative rho (up, down):  4.009E-01 0.000E+00

     total cpu time spent up to now is       19.9 secs

     total energy              =      -2.19613618 Ry
     estimated scf accuracy    <       0.00000002 Ry

     iteration # 67     ecut=    10.00 Ry     beta= 0.70
     Davidson diagonalization with overlap

---- Real-time Memory Report at c_bands before calling an iterative solver
           132 MiB given to the printing process from OS
             0 MiB allocation reported by mallinfo(arena+hblkhd)
           441 MiB available memory on the node where the printing process lives
------------------
     ethr =  8.66E-10,  avg # of iterations =  2.0

     negative rho (up, down):  4.009E-01 0.000E+00

     total cpu time spent up to now is       20.1 secs

     total energy              =      -2.19614427 Ry
     estimated scf accuracy    <       0.00000002 Ry

     iteration # 68     ecut=    10.00 Ry     beta= 0.70
     Davidson diagonalization with overlap

---- Real-time Memory Report at c_bands before calling an iterative solver
           132 MiB given to the printing process from OS
             0 MiB allocation reported by mallinfo(arena+hblkhd)
           441 MiB available memory on the node where the printing process lives
------------------
     ethr =  8.66E-10,  avg # of iterations =  3.0

     negative rho (up, down):  4.009E-01 0.000E+00

     total cpu time spent up to now is       20.4 secs

     total energy              =      -2.19614068 Ry
     estimated scf accuracy    <       0.00000005 Ry

     iteration # 69     ecut=    10.00 Ry     beta= 0.70
     Davidson diagonalization with overlap

---- Real-time Memory Report at c_bands before calling an iterative solver
           132 MiB given to the printing process from OS
             0 MiB allocation reported by mallinfo(arena+hblkhd)
           441 MiB available memory on the node where the printing process lives
------------------
     ethr =  8.66E-10,  avg # of iterations =  2.0

     negative rho (up, down):  4.011E-01 0.000E+00

     total cpu time spent up to now is       20.6 secs

     total energy              =      -2.19607685 Ry
     estimated scf accuracy    <       0.00000005 Ry

     iteration # 70     ecut=    10.00 Ry     beta= 0.70
     Davidson diagonalization with overlap

---- Real-time Memory Report at c_bands before calling an iterative solver
           132 MiB given to the printing process from OS
             0 MiB allocation reported by mallinfo(arena+hblkhd)
           441 MiB available memory on the node where the printing process lives
------------------
     ethr =  8.66E-10,  avg # of iterations =  4.0

     negative rho (up, down):  4.011E-01 0.000E+00

     total cpu time spent up to now is       20.8 secs

     total energy              =      -2.19610012 Ry
     estimated scf accuracy    <       0.00000004 Ry

     iteration # 71     ecut=    10.00 Ry     beta= 0.70
     Davidson diagonalization with overlap

---- Real-time Memory Report at c_bands before calling an iterative solver
           132 MiB given to the printing process from OS
             0 MiB allocation reported by mallinfo(arena+hblkhd)
           441 MiB available memory on the node where the printing process lives
------------------
     ethr =  8.66E-10,  avg # of iterations =  4.0

     negative rho (up, down):  4.008E-01 0.000E+00

     total cpu time spent up to now is       21.1 secs

     total energy              =      -2.19614367 Ry
     estimated scf accuracy    <       0.00000005 Ry

     iteration # 72     ecut=    10.00 Ry     beta= 0.70
     Davidson diagonalization with overlap

---- Real-time Memory Report at c_bands before calling an iterative solver
           132 MiB given to the printing process from OS
             0 MiB allocation reported by mallinfo(arena+hblkhd)
           441 MiB available memory on the node where the printing process lives
------------------
     ethr =  8.66E-10,  avg # of iterations =  4.0

     negative rho (up, down):  4.004E-01 0.000E+00

     total cpu time spent up to now is       21.3 secs

     total energy              =      -2.19623628 Ry
     estimated scf accuracy    <       0.00000003 Ry

     iteration # 73     ecut=    10.00 Ry     beta= 0.70
     Davidson diagonalization with overlap

---- Real-time Memory Report at c_bands before calling an iterative solver
           132 MiB given to the printing process from OS
             0 MiB allocation reported by mallinfo(arena+hblkhd)
           441 MiB available memory on the node where the printing process lives
------------------
     ethr =  8.66E-10,  avg # of iterations =  4.0

     negative rho (up, down):  4.006E-01 0.000E+00

     total cpu time spent up to now is       21.5 secs

     total energy              =      -2.19618567 Ry
     estimated scf accuracy    <       0.00000022 Ry

     iteration # 74     ecut=    10.00 Ry     beta= 0.70
     Davidson diagonalization with overlap

---- Real-time Memory Report at c_bands before calling an iterative solver
           132 MiB given to the printing process from OS
             0 MiB allocation reported by mallinfo(arena+hblkhd)
           441 MiB available memory on the node where the printing process lives
------------------
     ethr =  8.66E-10,  avg # of iterations =  4.0

     negative rho (up, down):  4.011E-01 0.000E+00

     total cpu time spent up to now is       21.7 secs

     total energy              =      -2.19606542 Ry
     estimated scf accuracy    <       0.00000006 Ry

     iteration # 75     ecut=    10.00 Ry     beta= 0.70
     Davidson diagonalization with overlap

---- Real-time Memory Report at c_bands before calling an iterative solver
           132 MiB given to the printing process from OS
             0 MiB allocation reported by mallinfo(arena+hblkhd)
           441 MiB available memory on the node where the printing process lives
------------------
     ethr =  8.66E-10,  avg # of iterations =  5.0

     negative rho (up, down):  4.011E-01 0.000E+00

     total cpu time spent up to now is       22.0 secs

     total energy              =      -2.19611329 Ry
     estimated scf accuracy    <       0.00000007 Ry

     iteration # 76     ecut=    10.00 Ry     beta= 0.70
     Davidson diagonalization with overlap

---- Real-time Memory Report at c_bands before calling an iterative solver
           132 MiB given to the printing process from OS
             0 MiB allocation reported by mallinfo(arena+hblkhd)
           441 MiB available memory on the node where the printing process lives
------------------
     ethr =  8.66E-10,  avg # of iterations =  4.0

     negative rho (up, down):  4.012E-01 0.000E+00

     total cpu time spent up to now is       22.2 secs

     total energy              =      -2.19608041 Ry
     estimated scf accuracy    <       0.00000026 Ry

     iteration # 77     ecut=    10.00 Ry     beta= 0.70
     Davidson diagonalization with overlap

---- Real-time Memory Report at c_bands before calling an iterative solver
           132 MiB given to the printing process from OS
             0 MiB allocation reported by mallinfo(arena+hblkhd)
           441 MiB available memory on the node where the printing process lives
------------------
     ethr =  8.66E-10,  avg # of iterations =  4.0

     negative rho (up, down):  4.010E-01 0.000E+00

     total cpu time spent up to now is       22.4 secs

     total energy              =      -2.19612004 Ry
     estimated scf accuracy    <       0.00000010 Ry

     iteration # 78     ecut=    10.00 Ry     beta= 0.70
     Davidson diagonalization with overlap

---- Real-time Memory Report at c_bands before calling an iterative solver
           132 MiB given to the printing process from OS
             0 MiB allocation reported by mallinfo(arena+hblkhd)
           441 MiB available memory on the node where the printing process lives
------------------
     ethr =  8.66E-10,  avg # of iterations =  4.0

     negative rho (up, down):  4.010E-01 0.000E+00

     total cpu time spent up to now is       22.7 secs

     total energy              =      -2.19612619 Ry
     estimated scf accuracy    <       0.00000007 Ry

     iteration # 79     ecut=    10.00 Ry     beta= 0.70
     Davidson diagonalization with overlap

---- Real-time Memory Report at c_bands before calling an iterative solver
           132 MiB given to the printing process from OS
             0 MiB allocation reported by mallinfo(arena+hblkhd)
           441 MiB available memory on the node where the printing process lives
------------------
     ethr =  8.66E-10,  avg # of iterations =  3.0

     negative rho (up, down):  4.010E-01 0.000E+00

     total cpu time spent up to now is       22.9 secs

     total energy              =      -2.19612803 Ry
     estimated scf accuracy    <       0.00000006 Ry

     iteration # 80     ecut=    10.00 Ry     beta= 0.70
     Davidson diagonalization with overlap

---- Real-time Memory Report at c_bands before calling an iterative solver
           132 MiB given to the printing process from OS
             0 MiB allocation reported by mallinfo(arena+hblkhd)
           441 MiB available memory on the node where the printing process lives
------------------
     ethr =  8.66E-10,  avg # of iterations =  2.0

     negative rho (up, down):  4.010E-01 0.000E+00

     total cpu time spent up to now is       23.1 secs

     total energy              =      -2.19612543 Ry
     estimated scf accuracy    <       0.00000007 Ry

     iteration # 81     ecut=    10.00 Ry     beta= 0.70
     Davidson diagonalization with overlap

---- Real-time Memory Report at c_bands before calling an iterative solver
           132 MiB given to the printing process from OS
             0 MiB allocation reported by mallinfo(arena+hblkhd)
           441 MiB available memory on the node where the printing process lives
------------------
     ethr =  8.66E-10,  avg # of iterations =  2.0

     negative rho (up, down):  4.010E-01 0.000E+00

     total cpu time spent up to now is       23.3 secs

     total energy              =      -2.19612390 Ry
     estimated scf accuracy    <       0.00000007 Ry

     iteration # 82     ecut=    10.00 Ry     beta= 0.70
     Davidson diagonalization with overlap

---- Real-time Memory Report at c_bands before calling an iterative solver
           132 MiB given to the printing process from OS
             0 MiB allocation reported by mallinfo(arena+hblkhd)
           441 MiB available memory on the node where the printing process lives
------------------
     ethr =  8.66E-10,  avg # of iterations =  2.0

     negative rho (up, down):  4.008E-01 0.000E+00

     total cpu time spent up to now is       23.5 secs

     total energy              =      -2.19612304 Ry
     estimated scf accuracy    <       0.00000006 Ry

     iteration # 83     ecut=    10.00 Ry     beta= 0.70
     Davidson diagonalization with overlap

---- Real-time Memory Report at c_bands before calling an iterative solver
           132 MiB given to the printing process from OS
             0 MiB allocation reported by mallinfo(arena+hblkhd)
           441 MiB available memory on the node where the printing process lives
------------------
     ethr =  8.66E-10,  avg # of iterations =  4.0

     negative rho (up, down):  4.008E-01 0.000E+00

     total cpu time spent up to now is       23.7 secs

     total energy              =      -2.19614153 Ry
     estimated scf accuracy    <       0.00000004 Ry

     iteration # 84     ecut=    10.00 Ry     beta= 0.70
     Davidson diagonalization with overlap

---- Real-time Memory Report at c_bands before calling an iterative solver
           132 MiB given to the printing process from OS
             0 MiB allocation reported by mallinfo(arena+hblkhd)
           441 MiB available memory on the node where the printing process lives
------------------
     ethr =  8.66E-10,  avg # of iterations =  3.0

     negative rho (up, down):  4.008E-01 0.000E+00

     total cpu time spent up to now is       24.0 secs

     total energy              =      -2.19614979 Ry
     estimated scf accuracy    <       0.00000006 Ry

     iteration # 85     ecut=    10.00 Ry     beta= 0.70
     Davidson diagonalization with overlap

---- Real-time Memory Report at c_bands before calling an iterative solver
           132 MiB given to the printing process from OS
             0 MiB allocation reported by mallinfo(arena+hblkhd)
           441 MiB available memory on the node where the printing process lives
------------------
     ethr =  8.66E-10,  avg # of iterations =  3.0

     negative rho (up, down):  4.008E-01 0.000E+00

     total cpu time spent up to now is       24.2 secs

     total energy              =      -2.19616384 Ry
     estimated scf accuracy    <       0.00000010 Ry

     iteration # 86     ecut=    10.00 Ry     beta= 0.70
     Davidson diagonalization with overlap

---- Real-time Memory Report at c_bands before calling an iterative solver
           132 MiB given to the printing process from OS
             0 MiB allocation reported by mallinfo(arena+hblkhd)
           441 MiB available memory on the node where the printing process lives
------------------
     ethr =  8.66E-10,  avg # of iterations =  4.0

     negative rho (up, down):  4.009E-01 0.000E+00

     total cpu time spent up to now is       24.4 secs

     total energy              =      -2.19614314 Ry
     estimated scf accuracy    <       0.00000008 Ry

     iteration # 87     ecut=    10.00 Ry     beta= 0.70
     Davidson diagonalization with overlap

---- Real-time Memory Report at c_bands before calling an iterative solver
           132 MiB given to the printing process from OS
             0 MiB allocation reported by mallinfo(arena+hblkhd)
           441 MiB available memory on the node where the printing process lives
------------------
     ethr =  8.66E-10,  avg # of iterations =  4.0

     negative rho (up, down):  4.011E-01 0.000E+00

     total cpu time spent up to now is       24.6 secs

     total energy              =      -2.19607426 Ry
     estimated scf accuracy    <       0.00000108 Ry

     iteration # 88     ecut=    10.00 Ry     beta= 0.70
     Davidson diagonalization with overlap

---- Real-time Memory Report at c_bands before calling an iterative solver
           132 MiB given to the printing process from OS
             0 MiB allocation reported by mallinfo(arena+hblkhd)
           441 MiB available memory on the node where the printing process lives
------------------
     ethr =  8.66E-10,  avg # of iterations =  4.0

     negative rho (up, down):  4.010E-01 0.000E+00

     total cpu time spent up to now is       24.9 secs

     total energy              =      -2.19612605 Ry
     estimated scf accuracy    <       0.00000013 Ry

     iteration # 89     ecut=    10.00 Ry     beta= 0.70
     Davidson diagonalization with overlap

---- Real-time Memory Report at c_bands before calling an iterative solver
           132 MiB given to the printing process from OS
             0 MiB allocation reported by mallinfo(arena+hblkhd)
           441 MiB available memory on the node where the printing process lives
------------------
     ethr =  8.66E-10,  avg # of iterations =  3.0

     negative rho (up, down):  4.010E-01 0.000E+00

     total cpu time spent up to now is       25.1 secs

     total energy              =      -2.19612436 Ry
     estimated scf accuracy    <       0.00000004 Ry

     iteration # 90     ecut=    10.00 Ry     beta= 0.70
     Davidson diagonalization with overlap

---- Real-time Memory Report at c_bands before calling an iterative solver
           132 MiB given to the printing process from OS
             0 MiB allocation reported by mallinfo(arena+hblkhd)
           441 MiB available memory on the node where the printing process lives
------------------
     ethr =  8.66E-10,  avg # of iterations =  4.0

     negative rho (up, down):  4.010E-01 0.000E+00

     total cpu time spent up to now is       25.3 secs

     total energy              =      -2.19613097 Ry
     estimated scf accuracy    <       0.00000006 Ry

     iteration # 91     ecut=    10.00 Ry     beta= 0.70
     Davidson diagonalization with overlap

---- Real-time Memory Report at c_bands before calling an iterative solver
           132 MiB given to the printing process from OS
             0 MiB allocation reported by mallinfo(arena+hblkhd)
           441 MiB available memory on the node where the printing process lives
------------------
     ethr =  8.66E-10,  avg # of iterations =  3.0

     negative rho (up, down):  4.009E-01 0.000E+00

     total cpu time spent up to now is       25.6 secs

     total energy              =      -2.19612313 Ry
     estimated scf accuracy    <       0.00000006 Ry

     iteration # 92     ecut=    10.00 Ry     beta= 0.70
     Davidson diagonalization with overlap

---- Real-time Memory Report at c_bands before calling an iterative solver
           132 MiB given to the printing process from OS
             0 MiB allocation reported by mallinfo(arena+hblkhd)
           441 MiB available memory on the node where the printing process lives
------------------
     ethr =  8.66E-10,  avg # of iterations =  4.0

     negative rho (up, down):  4.008E-01 0.000E+00

     total cpu time spent up to now is       25.8 secs

     total energy              =      -2.19615111 Ry
     estimated scf accuracy    <       0.00000007 Ry

     iteration # 93     ecut=    10.00 Ry     beta= 0.70
     Davidson diagonalization with overlap

---- Real-time Memory Report at c_bands before calling an iterative solver
           132 MiB given to the printing process from OS
             0 MiB allocation reported by mallinfo(arena+hblkhd)
           441 MiB available memory on the node where the printing process lives
------------------
     ethr =  8.66E-10,  avg # of iterations =  4.0

     negative rho (up, down):  4.004E-01 0.000E+00

     total cpu time spent up to now is       26.0 secs

     total energy              =      -2.19612341 Ry
     estimated scf accuracy    <       0.00000019 Ry

     iteration # 94     ecut=    10.00 Ry     beta= 0.70
     Davidson diagonalization with overlap

---- Real-time Memory Report at c_bands before calling an iterative solver
           132 MiB given to the printing process from OS
             0 MiB allocation reported by mallinfo(arena+hblkhd)
           441 MiB available memory on the node where the printing process lives
------------------
     ethr =  8.66E-10,  avg # of iterations =  4.0

     negative rho (up, down):  4.005E-01 0.000E+00

     total cpu time spent up to now is       26.2 secs

     total energy              =      -2.19613316 Ry
     estimated scf accuracy    <       0.00000467 Ry

     iteration # 95     ecut=    10.00 Ry     beta= 0.70
     Davidson diagonalization with overlap

---- Real-time Memory Report at c_bands before calling an iterative solver
           132 MiB given to the printing process from OS
             0 MiB allocation reported by mallinfo(arena+hblkhd)
           441 MiB available memory on the node where the printing process lives
------------------
     ethr =  8.66E-10,  avg # of iterations =  3.0

     negative rho (up, down):  4.007E-01 0.000E+00

     total cpu time spent up to now is       26.5 secs

     total energy              =      -2.19615677 Ry
     estimated scf accuracy    <       0.00000407 Ry

     iteration # 96     ecut=    10.00 Ry     beta= 0.70
     Davidson diagonalization with overlap

---- Real-time Memory Report at c_bands before calling an iterative solver
           132 MiB given to the printing process from OS
             0 MiB allocation reported by mallinfo(arena+hblkhd)
           441 MiB available memory on the node where the printing process lives
------------------
     ethr =  8.66E-10,  avg # of iterations =  4.0

     negative rho (up, down):  4.008E-01 0.000E+00

     total cpu time spent up to now is       26.7 secs

     total energy              =      -2.19617214 Ry
     estimated scf accuracy    <       0.00000052 Ry

     iteration # 97     ecut=    10.00 Ry     beta= 0.70
     Davidson diagonalization with overlap

---- Real-time Memory Report at c_bands before calling an iterative solver
           132 MiB given to the printing process from OS
             0 MiB allocation reported by mallinfo(arena+hblkhd)
           441 MiB available memory on the node where the printing process lives
------------------
     ethr =  8.66E-10,  avg # of iterations =  4.0

     negative rho (up, down):  4.009E-01 0.000E+00

     total cpu time spent up to now is       27.0 secs

     total energy              =      -2.19611143 Ry
     estimated scf accuracy    <       0.00000035 Ry

     iteration # 98     ecut=    10.00 Ry     beta= 0.70
     Davidson diagonalization with overlap

---- Real-time Memory Report at c_bands before calling an iterative solver
           132 MiB given to the printing process from OS
             0 MiB allocation reported by mallinfo(arena+hblkhd)
           441 MiB available memory on the node where the printing process lives
------------------
     ethr =  8.66E-10,  avg # of iterations =  4.0

     negative rho (up, down):  4.010E-01 0.000E+00

     total cpu time spent up to now is       27.2 secs

     total energy              =      -2.19611024 Ry
     estimated scf accuracy    <       0.00000010 Ry

     iteration # 99     ecut=    10.00 Ry     beta= 0.70
     Davidson diagonalization with overlap

---- Real-time Memory Report at c_bands before calling an iterative solver
           132 MiB given to the printing process from OS
             0 MiB allocation reported by mallinfo(arena+hblkhd)
           441 MiB available memory on the node where the printing process lives
------------------
     ethr =  8.66E-10,  avg # of iterations =  4.0

     negative rho (up, down):  4.010E-01 0.000E+00

     total cpu time spent up to now is       27.5 secs

     total energy              =      -2.19611281 Ry
     estimated scf accuracy    <       0.00000018 Ry

     iteration #100     ecut=    10.00 Ry     beta= 0.70
     Davidson diagonalization with overlap

---- Real-time Memory Report at c_bands before calling an iterative solver
           132 MiB given to the printing process from OS
             0 MiB allocation reported by mallinfo(arena+hblkhd)
           441 MiB available memory on the node where the printing process lives
------------------
     ethr =  8.66E-10,  avg # of iterations =  4.0

     negative rho (up, down):  4.010E-01 0.000E+00

     total cpu time spent up to now is       27.7 secs

     total energy              =      -2.19611191 Ry
     estimated scf accuracy    <       0.00000027 Ry

     End of self-consistent calculation

     convergence NOT achieved after 100 iterations: stopping

     Writing config to output data dir ./.save/
     Message from routine punch:
     wavefunctions written to file

     init_run     :      0.21s CPU      0.23s WALL (       1 calls)
     electrons    :     27.13s CPU     27.24s WALL (       2 calls)
     update_pot   :      0.14s CPU      0.15s WALL (       1 calls)
     forces       :      0.04s CPU      0.05s WALL (       1 calls)

     Called by init_run:
     wfcinit      :      0.02s CPU      0.02s WALL (       1 calls)
     wfcinit:atom :      0.00s CPU      0.00s WALL (       1 calls)
     wfcinit:wfcr :      0.01s CPU      0.01s WALL (       1 calls)
     potinit      :      0.14s CPU      0.14s WALL (       1 calls)
     hinit0       :      0.01s CPU      0.01s WALL (       1 calls)

     Called by electrons:
     c_bands      :      5.52s CPU      5.55s WALL (     120 calls)
     sum_band     :      2.95s CPU      2.98s WALL (     120 calls)
     v_of_rho     :     14.60s CPU     14.64s WALL (     122 calls)
     v_h          :      0.78s CPU      0.79s WALL (     122 calls)
     v_xc         :     13.82s CPU     13.86s WALL (     122 calls)
     newd         :      0.99s CPU      0.99s WALL (     122 calls)
     mix_rho      :      3.00s CPU      3.02s WALL (     120 calls)

     Called by c_bands:
     init_us_2    :      0.09s CPU      0.09s WALL (     241 calls)
     init_us_2:cp :      0.09s CPU      0.09s WALL (     241 calls)
     cegterg      :      5.46s CPU      5.49s WALL (     120 calls)

     Called by sum_band:
     sum_band:wei :      0.00s CPU      0.00s WALL (     120 calls)
     sum_band:loo :      0.81s CPU      0.82s WALL (     120 calls)
     sum_band:buf :      0.00s CPU      0.00s WALL (     120 calls)
     sum_band:ini :      0.05s CPU      0.05s WALL (     120 calls)
     sum_band:cal :      0.01s CPU      0.01s WALL (     120 calls)
     sum_band:bec :      0.00s CPU      0.00s WALL (     120 calls)
     addusdens    :      0.27s CPU      0.27s WALL (     120 calls)
     addusd:skk   :      0.08s CPU      0.08s WALL (     120 calls)
     addusd:dgemm :      0.06s CPU      0.06s WALL (     120 calls)
     addusd:qvan2 :      0.07s CPU      0.07s WALL (     120 calls)

     Called by *egterg:
     cdiaghg      :      0.01s CPU      0.01s WALL (     542 calls)
     cegterg:over :      0.07s CPU      0.07s WALL (     423 calls)
     cegterg:upda :      0.06s CPU      0.06s WALL (     423 calls)
     cegterg:last :      0.11s CPU      0.12s WALL (     320 calls)
     h_psi        :      5.09s CPU      5.11s WALL (     544 calls)
     s_psi        :      0.03s CPU      0.03s WALL (     544 calls)
     g_psi        :      0.03s CPU      0.03s WALL (     423 calls)

     Called by h_psi:
     h_psi:calbec :      0.04s CPU      0.04s WALL (     544 calls)
     vloc_psi     :      5.00s CPU      5.02s WALL (     544 calls)
     add_vuspsi   :      0.03s CPU      0.03s WALL (     544 calls)

     General routines
     calbec       :      0.05s CPU      0.05s WALL (     668 calls)
     fft          :      6.84s CPU      6.86s WALL (    1345 calls)
     ffts         :      0.61s CPU      0.61s WALL (     120 calls)
     fftw         :      5.21s CPU      5.24s WALL (    1856 calls)
     davcio       :      0.00s CPU      0.01s WALL (      19 calls)


     PWSCF        :     27.56s CPU     27.72s WALL


   This run was terminated on:   2:58: 5  28Feb2022            

=------------------------------------------------------------------------------=
   JOB DONE.
=------------------------------------------------------------------------------=
