
     Program PWSCF v.7.0 starts on 28Feb2022 at 22:13:59 

     This program is part of the open-source Quantum ESPRESSO suite
     for quantum simulation of materials; please cite
         "P. Giannozzi et al., J. Phys.:Condens. Matter 21 395502 (2009);
         "P. Giannozzi et al., J. Phys.:Condens. Matter 29 465901 (2017);
         "P. Giannozzi et al., J. Chem. Phys. 152 154105 (2020);
          URL http://www.quantum-espresso.org", 
     in publications or presentations arising from this work. More details at
     http://www.quantum-espresso.org/quote

     Serial version
     1300 MiB available memory on the printing compute node when the environment starts

     Waiting for input...
     Reading input from standard input

     Current dimensions of program PWSCF are:
     Max number of different atomic species (ntypx) = 10
     Max number of k-points (npk) =  40000
     Max angular momentum in pseudopotentials (lmaxx) =  4

    ============================================================
    |  pseudopotential report for atomic species:  1           |
    |        pseudo potential version   7   3   2              |
    ------------------------------------------------------------
    |  hydrogen            PBE                  exchange-corr  |
    |  z =   1.    zv( 1) =   1.    exfact =   5.00000         |
    |  ifpcor =  0           atomic energy =  -0.91772 Ry      |
    |  index    orbital      occupation    energy              |
    |    1        100           1.00       -0.48               |
    |  rinner =  0.5000                                        |
    |    new generation scheme:                                |
    |    nbeta =  1     kkbeta =  271     rcloc =    0.6000    |
    |    ibeta    l     epsilon   rcut                         |
    |      1       0      -0.48   0.80                         |
    ============================================================

     IMPORTANT: XC functional enforced from input :
     Exchange-correlation= BLYP
                           (   1   3   1   3   0   0   0)
     Any further DFT definition will be discarded
     Please, verify this is what you really want


     G-vector sticks info
     --------------------
     sticks:   dense  smooth     PW     G-vecs:    dense   smooth      PW
     Sum        1433    1433    421                40651    40651    6451

     Using Slab Decomposition



     bravais-lattice index     =            1
     lattice parameter (alat)  =      30.0000  a.u.
     unit-cell volume          =   27000.0000 (a.u.)^3
     number of atoms/cell      =            2
     number of atomic types    =            1
     number of electrons       =         2.00
     number of Kohn-Sham states=            2
     kinetic-energy cutoff     =       5.0000  Ry
     charge density cutoff     =      20.0000  Ry
     scf convergence threshold =      1.0E-08
     mixing beta               =       0.7000
     number of iterations used =            8  plain     mixing
     Exchange-correlation= BLYP
                           (   1   3   1   3   0   0   0)

     celldm(1)=  30.000000  celldm(2)=   0.000000  celldm(3)=   0.000000
     celldm(4)=   0.000000  celldm(5)=   0.000000  celldm(6)=   0.000000

     crystal axes: (cart. coord. in units of alat)
               a(1) = (   1.000000   0.000000   0.000000 )  
               a(2) = (   0.000000   1.000000   0.000000 )  
               a(3) = (   0.000000   0.000000   1.000000 )  

     reciprocal axes: (cart. coord. in units 2 pi/alat)
               b(1) = (  1.000000  0.000000  0.000000 )  
               b(2) = (  0.000000  1.000000  0.000000 )  
               b(3) = (  0.000000  0.000000  1.000000 )  


     PseudoPot. # 1 for hy read from file:
     /root/q-e/pseudo/H_US.van
     MD5 check sum: a9a9bfe98ff56cf4de197d71fc46bb44
     Pseudo is Ultrasoft, Zval =  1.0
     Generated by Vanderbilt code, v. 7.3.2
     Using radial grid of  399 points,  1 beta functions with: 
                l(1) =   0
     Q(r) pseudized with  8 coefficients,  rinner =    0.500

     atomic species   valence    mass     pseudopotential
        H              1.00     1.00784     hy( 1.00)

      8 Sym. Ops. (no inversion) found


                                    s                        frac. trans.

      isym =  1     identity                                     

 cryst.   s( 1) = (     1          0          0      )
                  (     0          1          0      )
                  (     0          0          1      )

 cart.    s( 1) = (  1.0000000  0.0000000  0.0000000 )
                  (  0.0000000  1.0000000  0.0000000 )
                  (  0.0000000  0.0000000  1.0000000 )


      isym =  2     180 deg rotation - cart. axis [1,0,0]        

 cryst.   s( 2) = (     1          0          0      )
                  (     0         -1          0      )
                  (     0          0         -1      )

 cart.    s( 2) = (  1.0000000  0.0000000  0.0000000 )
                  (  0.0000000 -1.0000000  0.0000000 )
                  (  0.0000000  0.0000000 -1.0000000 )


      isym =  3      90 deg rotation - cart. axis [-1,0,0]       

 cryst.   s( 3) = (     1          0          0      )
                  (     0          0         -1      )
                  (     0          1          0      )

 cart.    s( 3) = (  1.0000000  0.0000000  0.0000000 )
                  (  0.0000000  0.0000000  1.0000000 )
                  (  0.0000000 -1.0000000  0.0000000 )


      isym =  4      90 deg rotation - cart. axis [1,0,0]        

 cryst.   s( 4) = (     1          0          0      )
                  (     0          0          1      )
                  (     0         -1          0      )

 cart.    s( 4) = (  1.0000000  0.0000000  0.0000000 )
                  (  0.0000000  0.0000000 -1.0000000 )
                  (  0.0000000  1.0000000  0.0000000 )


      isym =  5     inv. 180 deg rotation - cart. axis [0,0,1]   

 cryst.   s( 5) = (     1          0          0      )
                  (     0          1          0      )
                  (     0          0         -1      )

 cart.    s( 5) = (  1.0000000  0.0000000  0.0000000 )
                  (  0.0000000  1.0000000  0.0000000 )
                  (  0.0000000  0.0000000 -1.0000000 )


      isym =  6     inv. 180 deg rotation - cart. axis [0,1,0]   

 cryst.   s( 6) = (     1          0          0      )
                  (     0         -1          0      )
                  (     0          0          1      )

 cart.    s( 6) = (  1.0000000  0.0000000  0.0000000 )
                  (  0.0000000 -1.0000000  0.0000000 )
                  (  0.0000000  0.0000000  1.0000000 )


      isym =  7     inv. 180 deg rotation - cart. axis [0,1,1]   

 cryst.   s( 7) = (     1          0          0      )
                  (     0          0         -1      )
                  (     0         -1          0      )

 cart.    s( 7) = (  1.0000000  0.0000000  0.0000000 )
                  (  0.0000000  0.0000000 -1.0000000 )
                  (  0.0000000 -1.0000000  0.0000000 )


      isym =  8     inv. 180 deg rotation - cart. axis [0,1,-1]  

 cryst.   s( 8) = (     1          0          0      )
                  (     0          0          1      )
                  (     0          1          0      )

 cart.    s( 8) = (  1.0000000  0.0000000  0.0000000 )
                  (  0.0000000  0.0000000  1.0000000 )
                  (  0.0000000  1.0000000  0.0000000 )


     point group C_4v (4mm) 
     there are  5 classes
     the character table:

       E     2C4   C2    2s_v  2s_d 
A_1    1.00  1.00  1.00  1.00  1.00
A_2    1.00  1.00  1.00 -1.00 -1.00
B_1    1.00 -1.00  1.00  1.00 -1.00
B_2    1.00 -1.00  1.00 -1.00  1.00
E      2.00  0.00 -2.00  0.00  0.00

     the symmetry operations in each class and the name of the first element:

     E        1
          identity                                               
     2C4      3    4
           90 deg rotation - cart. axis [-1,0,0]                 
     C2       2
          180 deg rotation - cart. axis [1,0,0]                  
     2s_v     5    6
          inv. 180 deg rotation - cart. axis [0,0,1]             
     2s_d     7    8
          inv. 180 deg rotation - cart. axis [0,1,1]             

   Cartesian axes

     site n.     atom                  positions (alat units)
         1           H   tau(   1) = (   0.0000000   0.0000000   0.0000000  )
         2           H   tau(   2) = (   0.0125982   0.0000000   0.0000000  )

   Crystallographic axes

     site n.     atom                  positions (cryst. coord.)
         1           H   tau(   1) = (  0.0000000  0.0000000  0.0000000  )
         2           H   tau(   2) = (  0.0125982  0.0000000  0.0000000  )

     number of k points=     1
                       cart. coord. in units 2pi/alat
        k(    1) = (  -0.5000000  -0.5000000  -0.5000000), wk =   2.0000000

                       cryst. coord.
        k(    1) = (  -0.5000000  -0.5000000  -0.5000000), wk =   2.0000000

     Dense  grid:    40651 G-vectors     FFT dimensions: (  45,  45,  45)

     Dynamical RAM for                 wfc:       0.16 MB

     Dynamical RAM for     wfc (w. buffer):       0.16 MB

     Dynamical RAM for           str. fact:       0.62 MB

     Dynamical RAM for           local pot:       0.00 MB

     Dynamical RAM for          nlocal pot:       0.16 MB

     Dynamical RAM for                qrad:       0.00 MB

     Dynamical RAM for          rho,v,vnew:       3.95 MB

     Dynamical RAM for               rhoin:       1.32 MB

     Dynamical RAM for            rho*nmix:       9.92 MB

     Dynamical RAM for           G-vectors:       2.64 MB

     Dynamical RAM for          h,s,v(r/c):       0.00 MB

     Dynamical RAM for          <psi|beta>:       0.00 MB

     Dynamical RAM for                 psi:       0.31 MB

     Dynamical RAM for                hpsi:       0.31 MB

     Dynamical RAM for                spsi:       0.31 MB

     Dynamical RAM for      wfcinit/wfcrot:       0.31 MB

     Dynamical RAM for           addusdens:       3.72 MB

     Estimated static dynamical RAM per process >      13.55 MB

     Estimated max dynamical RAM per process >      27.20 MB

     Initial potential from superposition of free atoms

     starting charge       2.0000, renormalised to       2.0000

     negative rho (up, down):  6.970E-01 0.000E+00
     Starting wfcs are    2 randomized atomic wfcs

     total cpu time spent up to now is        0.1 secs

     Self-consistent Calculation

     iteration #  1     ecut=     5.00 Ry     beta= 0.70
     Davidson diagonalization with overlap

---- Real-time Memory Report at c_bands before calling an iterative solver
            38 MiB given to the printing process from OS
             0 MiB allocation reported by mallinfo(arena+hblkhd)
          1281 MiB available memory on the node where the printing process lives
------------------
     ethr =  1.00E-02,  avg # of iterations =  9.0

     negative rho (up, down):  7.867E-01 0.000E+00

     total cpu time spent up to now is        0.2 secs

     total energy              =       1.07472604 Ry
     estimated scf accuracy    <       0.06194404 Ry

     iteration #  2     ecut=     5.00 Ry     beta= 0.70
     Davidson diagonalization with overlap

---- Real-time Memory Report at c_bands before calling an iterative solver
            44 MiB given to the printing process from OS
             0 MiB allocation reported by mallinfo(arena+hblkhd)
          1268 MiB available memory on the node where the printing process lives
------------------
     ethr =  3.10E-03,  avg # of iterations =  2.0

     negative rho (up, down):  7.923E-01 0.000E+00

     total cpu time spent up to now is        0.3 secs

     total energy              =       1.05616987 Ry
     estimated scf accuracy    <       0.00111174 Ry

     iteration #  3     ecut=     5.00 Ry     beta= 0.70
     Davidson diagonalization with overlap

---- Real-time Memory Report at c_bands before calling an iterative solver
            45 MiB given to the printing process from OS
             0 MiB allocation reported by mallinfo(arena+hblkhd)
          1267 MiB available memory on the node where the printing process lives
------------------
     ethr =  5.56E-05,  avg # of iterations =  6.0

     negative rho (up, down):  7.902E-01 0.000E+00

     total cpu time spent up to now is        0.4 secs

     total energy              =       1.05220512 Ry
     estimated scf accuracy    <       0.00009341 Ry

     iteration #  4     ecut=     5.00 Ry     beta= 0.70
     Davidson diagonalization with overlap

---- Real-time Memory Report at c_bands before calling an iterative solver
            47 MiB given to the printing process from OS
             0 MiB allocation reported by mallinfo(arena+hblkhd)
          1266 MiB available memory on the node where the printing process lives
------------------
     ethr =  4.67E-06,  avg # of iterations =  4.0

     negative rho (up, down):  7.801E-01 0.000E+00

     total cpu time spent up to now is        0.4 secs

     total energy              =       1.05009349 Ry
     estimated scf accuracy    <       0.00019281 Ry

     iteration #  5     ecut=     5.00 Ry     beta= 0.70
     Davidson diagonalization with overlap

---- Real-time Memory Report at c_bands before calling an iterative solver
            48 MiB given to the printing process from OS
             0 MiB allocation reported by mallinfo(arena+hblkhd)
          1264 MiB available memory on the node where the printing process lives
------------------
     ethr =  4.67E-06,  avg # of iterations =  3.0

     negative rho (up, down):  7.864E-01 0.000E+00

     total cpu time spent up to now is        0.5 secs

     total energy              =       1.05087993 Ry
     estimated scf accuracy    <       0.00001475 Ry

     iteration #  6     ecut=     5.00 Ry     beta= 0.70
     Davidson diagonalization with overlap

---- Real-time Memory Report at c_bands before calling an iterative solver
            49 MiB given to the printing process from OS
             0 MiB allocation reported by mallinfo(arena+hblkhd)
          1263 MiB available memory on the node where the printing process lives
------------------
     ethr =  7.37E-07,  avg # of iterations = 12.0

     negative rho (up, down):  7.819E-01 0.000E+00

     total cpu time spent up to now is        0.6 secs

     total energy              =       1.05074286 Ry
     estimated scf accuracy    <       0.00009154 Ry

     iteration #  7     ecut=     5.00 Ry     beta= 0.70
     Davidson diagonalization with overlap

---- Real-time Memory Report at c_bands before calling an iterative solver
            50 MiB given to the printing process from OS
             0 MiB allocation reported by mallinfo(arena+hblkhd)
          1262 MiB available memory on the node where the printing process lives
------------------
     ethr =  7.37E-07,  avg # of iterations =  8.0

     negative rho (up, down):  7.817E-01 0.000E+00

     total cpu time spent up to now is        0.7 secs

     total energy              =       1.04998461 Ry
     estimated scf accuracy    <       0.00000021 Ry

     iteration #  8     ecut=     5.00 Ry     beta= 0.70
     Davidson diagonalization with overlap

---- Real-time Memory Report at c_bands before calling an iterative solver
            52 MiB given to the printing process from OS
             0 MiB allocation reported by mallinfo(arena+hblkhd)
          1261 MiB available memory on the node where the printing process lives
------------------
     ethr =  1.05E-08,  avg # of iterations =  2.0

     negative rho (up, down):  7.820E-01 0.000E+00

     total cpu time spent up to now is        0.8 secs

     total energy              =       1.05006551 Ry
     estimated scf accuracy    <       0.00000062 Ry

     iteration #  9     ecut=     5.00 Ry     beta= 0.70
     Davidson diagonalization with overlap

---- Real-time Memory Report at c_bands before calling an iterative solver
            53 MiB given to the printing process from OS
             0 MiB allocation reported by mallinfo(arena+hblkhd)
          1259 MiB available memory on the node where the printing process lives
------------------
     ethr =  1.05E-08,  avg # of iterations =  3.0

     negative rho (up, down):  7.822E-01 0.000E+00

     total cpu time spent up to now is        0.9 secs

     total energy              =       1.05011211 Ry
     estimated scf accuracy    <       0.00000018 Ry

     iteration # 10     ecut=     5.00 Ry     beta= 0.70
     Davidson diagonalization with overlap

---- Real-time Memory Report at c_bands before calling an iterative solver
            54 MiB given to the printing process from OS
             0 MiB allocation reported by mallinfo(arena+hblkhd)
          1258 MiB available memory on the node where the printing process lives
------------------
     ethr =  8.82E-09,  avg # of iterations =  3.0

     negative rho (up, down):  7.820E-01 0.000E+00

     total cpu time spent up to now is        0.9 secs

     total energy              =       1.05003847 Ry
     estimated scf accuracy    <       0.00000010 Ry

     iteration # 11     ecut=     5.00 Ry     beta= 0.70
     Davidson diagonalization with overlap

---- Real-time Memory Report at c_bands before calling an iterative solver
            54 MiB given to the printing process from OS
             0 MiB allocation reported by mallinfo(arena+hblkhd)
          1258 MiB available memory on the node where the printing process lives
------------------
     ethr =  4.95E-09,  avg # of iterations =  3.0

     negative rho (up, down):  7.822E-01 0.000E+00

     total cpu time spent up to now is        1.0 secs

     total energy              =       1.05008021 Ry
     estimated scf accuracy    <       0.00000002 Ry

     iteration # 12     ecut=     5.00 Ry     beta= 0.70
     Davidson diagonalization with overlap

---- Real-time Memory Report at c_bands before calling an iterative solver
            54 MiB given to the printing process from OS
             0 MiB allocation reported by mallinfo(arena+hblkhd)
          1258 MiB available memory on the node where the printing process lives
------------------
     ethr =  1.24E-09,  avg # of iterations =  3.0

     negative rho (up, down):  7.822E-01 0.000E+00

     total cpu time spent up to now is        1.1 secs

     total energy              =       1.05007787 Ry
     estimated scf accuracy    <       0.00000002 Ry

     iteration # 13     ecut=     5.00 Ry     beta= 0.70
     Davidson diagonalization with overlap

---- Real-time Memory Report at c_bands before calling an iterative solver
            54 MiB given to the printing process from OS
             0 MiB allocation reported by mallinfo(arena+hblkhd)
          1258 MiB available memory on the node where the printing process lives
------------------
     ethr =  9.17E-10,  avg # of iterations =  3.0

     negative rho (up, down):  7.822E-01 0.000E+00

     total cpu time spent up to now is        1.1 secs

     End of self-consistent calculation

          k =-0.5000-0.5000-0.5000 (  5040 PWs)   bands (ev):

   -14.3789  -1.5118

     occupation numbers 
     1.0000   0.0000

     highest occupied, lowest unoccupied level (ev):   -14.3789   -1.5118

!    total energy              =       1.05006966 Ry
     estimated scf accuracy    <          2.9E-09 Ry

     The total energy is the sum of the following terms:
     one-electron contribution =      -4.81875502 Ry
     hartree contribution      =       2.36216764 Ry
     xc contribution           =      -1.40683089 Ry
     ewald contribution        =       4.91348793 Ry

     convergence has been achieved in  13 iterations

     Writing all to output data dir ./.save/

     init_run     :      0.08s CPU      0.09s WALL (       1 calls)
     electrons    :      1.00s CPU      1.02s WALL (       1 calls)

     Called by init_run:
     wfcinit      :      0.00s CPU      0.01s WALL (       1 calls)
     wfcinit:atom :      0.00s CPU      0.00s WALL (       1 calls)
     wfcinit:wfcr :      0.00s CPU      0.00s WALL (       1 calls)
     potinit      :      0.05s CPU      0.05s WALL (       1 calls)
     hinit0       :      0.01s CPU      0.01s WALL (       1 calls)

     Called by electrons:
     c_bands      :      0.25s CPU      0.26s WALL (      13 calls)
     sum_band     :      0.11s CPU      0.11s WALL (      13 calls)
     v_of_rho     :      0.55s CPU      0.56s WALL (      14 calls)
     v_h          :      0.03s CPU      0.03s WALL (      14 calls)
     v_xc         :      0.52s CPU      0.53s WALL (      14 calls)
     newd         :      0.03s CPU      0.04s WALL (      14 calls)
     mix_rho      :      0.08s CPU      0.08s WALL (      13 calls)

     Called by c_bands:
     init_us_2    :      0.00s CPU      0.00s WALL (      27 calls)
     init_us_2:cp :      0.00s CPU      0.00s WALL (      27 calls)
     cegterg      :      0.25s CPU      0.26s WALL (      13 calls)

     Called by sum_band:
     sum_band:wei :      0.00s CPU      0.00s WALL (      13 calls)
     sum_band:loo :      0.03s CPU      0.03s WALL (      13 calls)
     sum_band:buf :      0.00s CPU      0.00s WALL (      13 calls)
     sum_band:ini :      0.00s CPU      0.00s WALL (      13 calls)
     sum_band:cal :      0.00s CPU      0.00s WALL (      13 calls)
     sum_band:bec :      0.00s CPU      0.00s WALL (      13 calls)
     addusdens    :      0.01s CPU      0.01s WALL (      13 calls)
     addusd:skk   :      0.00s CPU      0.00s WALL (      13 calls)
     addusd:dgemm :      0.00s CPU      0.00s WALL (      13 calls)
     addusd:qvan2 :      0.00s CPU      0.00s WALL (      13 calls)

     Called by *egterg:
     cdiaghg      :      0.00s CPU      0.00s WALL (      74 calls)
     cegterg:over :      0.00s CPU      0.00s WALL (      61 calls)
     cegterg:upda :      0.00s CPU      0.00s WALL (      61 calls)
     cegterg:last :      0.01s CPU      0.01s WALL (      45 calls)
     h_psi        :      0.23s CPU      0.24s WALL (      75 calls)
     s_psi        :      0.00s CPU      0.00s WALL (      75 calls)
     g_psi        :      0.00s CPU      0.00s WALL (      61 calls)

     Called by h_psi:
     h_psi:calbec :      0.00s CPU      0.00s WALL (      75 calls)
     vloc_psi     :      0.23s CPU      0.24s WALL (      75 calls)
     add_vuspsi   :      0.00s CPU      0.00s WALL (      75 calls)

     General routines
     calbec       :      0.00s CPU      0.00s WALL (      88 calls)
     fft          :      0.24s CPU      0.24s WALL (     153 calls)
     ffts         :      0.02s CPU      0.02s WALL (      13 calls)
     fftw         :      0.24s CPU      0.25s WALL (     248 calls)


     PWSCF        :      1.12s CPU      1.16s WALL


   This run was terminated on:  22:14: 0  28Feb2022            

=------------------------------------------------------------------------------=
   JOB DONE.
=------------------------------------------------------------------------------=
