
     Program PWSCF v.7.0 starts on 28Feb2022 at  4:11:24 

     This program is part of the open-source Quantum ESPRESSO suite
     for quantum simulation of materials; please cite
         "P. Giannozzi et al., J. Phys.:Condens. Matter 21 395502 (2009);
         "P. Giannozzi et al., J. Phys.:Condens. Matter 29 465901 (2017);
         "P. Giannozzi et al., J. Chem. Phys. 152 154105 (2020);
          URL http://www.quantum-espresso.org", 
     in publications or presentations arising from this work. More details at
     http://www.quantum-espresso.org/quote

     Serial version
     601 MiB available memory on the printing compute node when the environment starts

     Waiting for input...
     Reading input from standard input

     Current dimensions of program PWSCF are:
     Max number of different atomic species (ntypx) = 10
     Max number of k-points (npk) =  40000
     Max angular momentum in pseudopotentials (lmaxx) =  4

    ============================================================
    |  pseudopotential report for atomic species:  1           |
    |        pseudo potential version   7   3   2              |
    ------------------------------------------------------------
    |  hydrogen            PBE                  exchange-corr  |
    |  z =   1.    zv( 1) =   1.    exfact =   5.00000         |
    |  ifpcor =  0           atomic energy =  -0.91772 Ry      |
    |  index    orbital      occupation    energy              |
    |    1        100           1.00       -0.48               |
    |  rinner =  0.5000                                        |
    |    new generation scheme:                                |
    |    nbeta =  1     kkbeta =  271     rcloc =    0.6000    |
    |    ibeta    l     epsilon   rcut                         |
    |      1       0      -0.48   0.80                         |
    ============================================================

     IMPORTANT: XC functional enforced from input :
     Exchange-correlation= BLYP
                           (   1   3   1   3   0   0   0)
     Any further DFT definition will be discarded
     Please, verify this is what you really want


     G-vector sticks info
     --------------------
     sticks:   dense  smooth     PW     G-vecs:    dense   smooth      PW
     Sum        8585    8585   2289               599161   599161   82519

     Using Slab Decomposition



     bravais-lattice index     =            1
     lattice parameter (alat)  =      30.0000  a.u.
     unit-cell volume          =   27000.0000 (a.u.)^3
     number of atoms/cell      =            2
     number of atomic types    =            1
     number of electrons       =         2.00
     number of Kohn-Sham states=            2
     kinetic-energy cutoff     =      30.0000  Ry
     charge density cutoff     =     120.0000  Ry
     scf convergence threshold =      1.0E-08
     mixing beta               =       0.7000
     number of iterations used =            8  plain     mixing
     energy convergence thresh.=      1.0E-04
     force convergence thresh. =      1.0E-03
     Exchange-correlation= BLYP
                           (   1   3   1   3   0   0   0)
     nstep                     =           50


     celldm(1)=  30.000000  celldm(2)=   0.000000  celldm(3)=   0.000000
     celldm(4)=   0.000000  celldm(5)=   0.000000  celldm(6)=   0.000000

     crystal axes: (cart. coord. in units of alat)
               a(1) = (   1.000000   0.000000   0.000000 )  
               a(2) = (   0.000000   1.000000   0.000000 )  
               a(3) = (   0.000000   0.000000   1.000000 )  

     reciprocal axes: (cart. coord. in units 2 pi/alat)
               b(1) = (  1.000000  0.000000  0.000000 )  
               b(2) = (  0.000000  1.000000  0.000000 )  
               b(3) = (  0.000000  0.000000  1.000000 )  


     PseudoPot. # 1 for hy read from file:
     /root/q-e/pseudo/H_US.van
     MD5 check sum: a9a9bfe98ff56cf4de197d71fc46bb44
     Pseudo is Ultrasoft, Zval =  1.0
     Generated by Vanderbilt code, v. 7.3.2
     Using radial grid of  399 points,  1 beta functions with: 
                l(1) =   0
     Q(r) pseudized with  8 coefficients,  rinner =    0.500

     atomic species   valence    mass     pseudopotential
        H              1.00     1.00784     hy( 1.00)

      8 Sym. Ops. (no inversion) found


                                    s                        frac. trans.

      isym =  1     identity                                     

 cryst.   s( 1) = (     1          0          0      )
                  (     0          1          0      )
                  (     0          0          1      )

 cart.    s( 1) = (  1.0000000  0.0000000  0.0000000 )
                  (  0.0000000  1.0000000  0.0000000 )
                  (  0.0000000  0.0000000  1.0000000 )


      isym =  2     180 deg rotation - cart. axis [1,0,0]        

 cryst.   s( 2) = (     1          0          0      )
                  (     0         -1          0      )
                  (     0          0         -1      )

 cart.    s( 2) = (  1.0000000  0.0000000  0.0000000 )
                  (  0.0000000 -1.0000000  0.0000000 )
                  (  0.0000000  0.0000000 -1.0000000 )


      isym =  3      90 deg rotation - cart. axis [-1,0,0]       

 cryst.   s( 3) = (     1          0          0      )
                  (     0          0         -1      )
                  (     0          1          0      )

 cart.    s( 3) = (  1.0000000  0.0000000  0.0000000 )
                  (  0.0000000  0.0000000  1.0000000 )
                  (  0.0000000 -1.0000000  0.0000000 )


      isym =  4      90 deg rotation - cart. axis [1,0,0]        

 cryst.   s( 4) = (     1          0          0      )
                  (     0          0          1      )
                  (     0         -1          0      )

 cart.    s( 4) = (  1.0000000  0.0000000  0.0000000 )
                  (  0.0000000  0.0000000 -1.0000000 )
                  (  0.0000000  1.0000000  0.0000000 )


      isym =  5     inv. 180 deg rotation - cart. axis [0,0,1]   

 cryst.   s( 5) = (     1          0          0      )
                  (     0          1          0      )
                  (     0          0         -1      )

 cart.    s( 5) = (  1.0000000  0.0000000  0.0000000 )
                  (  0.0000000  1.0000000  0.0000000 )
                  (  0.0000000  0.0000000 -1.0000000 )


      isym =  6     inv. 180 deg rotation - cart. axis [0,1,0]   

 cryst.   s( 6) = (     1          0          0      )
                  (     0         -1          0      )
                  (     0          0          1      )

 cart.    s( 6) = (  1.0000000  0.0000000  0.0000000 )
                  (  0.0000000 -1.0000000  0.0000000 )
                  (  0.0000000  0.0000000  1.0000000 )


      isym =  7     inv. 180 deg rotation - cart. axis [0,1,1]   

 cryst.   s( 7) = (     1          0          0      )
                  (     0          0         -1      )
                  (     0         -1          0      )

 cart.    s( 7) = (  1.0000000  0.0000000  0.0000000 )
                  (  0.0000000  0.0000000 -1.0000000 )
                  (  0.0000000 -1.0000000  0.0000000 )


      isym =  8     inv. 180 deg rotation - cart. axis [0,1,-1]  

 cryst.   s( 8) = (     1          0          0      )
                  (     0          0          1      )
                  (     0          1          0      )

 cart.    s( 8) = (  1.0000000  0.0000000  0.0000000 )
                  (  0.0000000  0.0000000  1.0000000 )
                  (  0.0000000  1.0000000  0.0000000 )


     point group C_4v (4mm) 
     there are  5 classes
     the character table:

       E     2C4   C2    2s_v  2s_d 
A_1    1.00  1.00  1.00  1.00  1.00
A_2    1.00  1.00  1.00 -1.00 -1.00
B_1    1.00 -1.00  1.00  1.00 -1.00
B_2    1.00 -1.00  1.00 -1.00  1.00
E      2.00  0.00 -2.00  0.00  0.00

     the symmetry operations in each class and the name of the first element:

     E        1
          identity                                               
     2C4      3    4
           90 deg rotation - cart. axis [-1,0,0]                 
     C2       2
          180 deg rotation - cart. axis [1,0,0]                  
     2s_v     5    6
          inv. 180 deg rotation - cart. axis [0,0,1]             
     2s_d     7    8
          inv. 180 deg rotation - cart. axis [0,1,1]             

   Cartesian axes

     site n.     atom                  positions (alat units)
         1           H   tau(   1) = (   0.0000000   0.0000000   0.0000000  )
         2           H   tau(   2) = (   0.0466132   0.0000000   0.0000000  )

   Crystallographic axes

     site n.     atom                  positions (cryst. coord.)
         1           H   tau(   1) = (  0.0000000  0.0000000  0.0000000  )
         2           H   tau(   2) = (  0.0466132  0.0000000  0.0000000  )

     number of k points=     1
                       cart. coord. in units 2pi/alat
        k(    1) = (  -0.5000000  -0.5000000  -0.5000000), wk =   2.0000000

                       cryst. coord.
        k(    1) = (  -0.5000000  -0.5000000  -0.5000000), wk =   2.0000000

     Dense  grid:   599161 G-vectors     FFT dimensions: ( 108, 108, 108)

     Dynamical RAM for                 wfc:       2.29 MB

     Dynamical RAM for     wfc (w. buffer):       2.29 MB

     Dynamical RAM for           str. fact:       9.14 MB

     Dynamical RAM for           local pot:       0.00 MB

     Dynamical RAM for          nlocal pot:       2.29 MB

     Dynamical RAM for                qrad:       0.01 MB

     Dynamical RAM for          rho,v,vnew:      56.26 MB

     Dynamical RAM for               rhoin:      18.75 MB

     Dynamical RAM for            rho*nmix:     146.28 MB

     Dynamical RAM for           G-vectors:      38.86 MB

     Dynamical RAM for          h,s,v(r/c):       0.00 MB

     Dynamical RAM for          <psi|beta>:       0.00 MB

     Dynamical RAM for                 psi:       4.57 MB

     Dynamical RAM for                hpsi:       4.57 MB

     Dynamical RAM for                spsi:       4.57 MB

     Dynamical RAM for      wfcinit/wfcrot:       4.57 MB

     Dynamical RAM for           addusdens:      54.85 MB

     Dynamical RAM for          addusforce:      77.71 MB

     Estimated static dynamical RAM per process >     193.93 MB

     Estimated max dynamical RAM per process >     417.92 MB

     Initial potential from superposition of free atoms

     starting charge       2.0000, renormalised to       2.0000

     negative rho (up, down):  1.543E-02 0.000E+00
     Starting wfcs are    2 randomized atomic wfcs

     total cpu time spent up to now is        1.1 secs

     Self-consistent Calculation

     iteration #  1     ecut=    30.00 Ry     beta= 0.70
     Davidson diagonalization with overlap

---- Real-time Memory Report at c_bands before calling an iterative solver
           331 MiB given to the printing process from OS
             0 MiB allocation reported by mallinfo(arena+hblkhd)
           376 MiB available memory on the node where the printing process lives
------------------
     ethr =  1.00E-02,  avg # of iterations =  5.0

     negative rho (up, down):  2.102E-02 0.000E+00

     total cpu time spent up to now is        2.3 secs

     total energy              =      -2.31013327 Ry
     estimated scf accuracy    <       0.11719003 Ry

     iteration #  2     ecut=    30.00 Ry     beta= 0.70
     Davidson diagonalization with overlap

---- Real-time Memory Report at c_bands before calling an iterative solver
           423 MiB given to the printing process from OS
             0 MiB allocation reported by mallinfo(arena+hblkhd)
           191 MiB available memory on the node where the printing process lives
------------------
     ethr =  5.86E-03,  avg # of iterations =  1.0

     negative rho (up, down):  2.219E-02 0.000E+00

     total cpu time spent up to now is        3.3 secs

     total energy              =      -2.31803861 Ry
     estimated scf accuracy    <       0.00113841 Ry

     iteration #  3     ecut=    30.00 Ry     beta= 0.70
     Davidson diagonalization with overlap

---- Real-time Memory Report at c_bands before calling an iterative solver
           441 MiB given to the printing process from OS
             0 MiB allocation reported by mallinfo(arena+hblkhd)
           173 MiB available memory on the node where the printing process lives
------------------
     ethr =  5.69E-05,  avg # of iterations =  9.0

     negative rho (up, down):  2.208E-02 0.000E+00

     total cpu time spent up to now is        4.8 secs

     total energy              =      -2.31848791 Ry
     estimated scf accuracy    <       0.00001365 Ry

     iteration #  4     ecut=    30.00 Ry     beta= 0.70
     Davidson diagonalization with overlap

---- Real-time Memory Report at c_bands before calling an iterative solver
           459 MiB given to the printing process from OS
             0 MiB allocation reported by mallinfo(arena+hblkhd)
           155 MiB available memory on the node where the printing process lives
------------------
     ethr =  6.82E-07,  avg # of iterations =  5.0

     negative rho (up, down):  2.208E-02 0.000E+00

     total cpu time spent up to now is        6.1 secs

     total energy              =      -2.31849157 Ry
     estimated scf accuracy    <       0.00000030 Ry

     iteration #  5     ecut=    30.00 Ry     beta= 0.70
     Davidson diagonalization with overlap

---- Real-time Memory Report at c_bands before calling an iterative solver
           478 MiB given to the printing process from OS
             0 MiB allocation reported by mallinfo(arena+hblkhd)
           136 MiB available memory on the node where the printing process lives
------------------
     ethr =  1.51E-08,  avg # of iterations =  1.0

     negative rho (up, down):  2.208E-02 0.000E+00

     total cpu time spent up to now is        7.0 secs

     End of self-consistent calculation

          k =-0.5000-0.5000-0.5000 ( 74736 PWs)   bands (ev):

   -10.3616  -0.6570

     occupation numbers 
     1.0000   0.0000

     highest occupied, lowest unoccupied level (ev):   -10.3616   -0.6570

!    total energy              =      -2.31849082 Ry
     estimated scf accuracy    <          8.9E-09 Ry

     The total energy is the sum of the following terms:
     one-electron contribution =      -4.22930501 Ry
     hartree contribution      =       2.24479880 Ry
     xc contribution           =      -1.38619128 Ry
     ewald contribution        =       1.05220668 Ry

     convergence has been achieved in   5 iterations

     Forces acting on atoms (cartesian axes, Ry/au):

     atom    1 type  1   force =    -0.01516542    0.00000000    0.00000000
     atom    2 type  1   force =     0.01516542    0.00000000    0.00000000
     The non-local contrib.  to forces
     atom    1 type  1   force =     0.10792853    0.00000000    0.00000000
     atom    2 type  1   force =    -0.10796454    0.00000000    0.00000000
     The ionic contribution  to forces
     atom    1 type  1   force =    -1.02231174   -0.00000000   -0.00000000
     atom    2 type  1   force =     1.02231174   -0.00000000   -0.00000000
     The local contribution  to forces
     atom    1 type  1   force =     0.89921561    0.00000000    0.00000000
     atom    2 type  1   force =    -0.89921415    0.00000000    0.00000000
     The core correction contribution to forces
     atom    1 type  1   force =     0.00000000    0.00000000    0.00000000
     atom    2 type  1   force =     0.00000000    0.00000000    0.00000000
     The Hubbard contrib.    to forces
     atom    1 type  1   force =     0.00000000    0.00000000    0.00000000
     atom    2 type  1   force =     0.00000000    0.00000000    0.00000000
     The SCF correction term to forces
     atom    1 type  1   force =    -0.00001911   -0.00000000    0.00000000
     atom    2 type  1   force =     0.00001109   -0.00000000    0.00000000

     Total force =     0.021447     Total SCF correction =     0.000022

     BFGS Geometry Optimization
     Energy error            =      0.0E+00 Ry
     Gradient error          =      1.5E-02 Ry/Bohr

     number of scf cycles    =   1
     number of bfgs steps    =   0

     energy             new  =      -2.3184908177 Ry

     new trust radius        =       0.0151654221 bohr
     new conv_thr            =       0.0000000100 Ry


ATOMIC_POSITIONS (angstrom)
H            -0.0080251958        0.0000000000        0.0000000000
H             0.7480251958        0.0000000000        0.0000000000



     Writing config-only to output data dir ./.save/
     NEW-OLD atomic charge density approx. for the potential

     negative rho (up, down):  2.185E-02 0.000E+00

     total cpu time spent up to now is        8.1 secs

     Self-consistent Calculation

     iteration #  1     ecut=    30.00 Ry     beta= 0.70
     Davidson diagonalization with overlap

---- Real-time Memory Report at c_bands before calling an iterative solver
           487 MiB given to the printing process from OS
             0 MiB allocation reported by mallinfo(arena+hblkhd)
           363 MiB available memory on the node where the printing process lives
------------------
     ethr =  1.00E-06,  avg # of iterations =  6.0

     negative rho (up, down):  2.148E-02 0.000E+00

     total cpu time spent up to now is        9.5 secs

     total energy              =      -2.31893859 Ry
     estimated scf accuracy    <       0.00007555 Ry

     iteration #  2     ecut=    30.00 Ry     beta= 0.70
     Davidson diagonalization with overlap

---- Real-time Memory Report at c_bands before calling an iterative solver
           487 MiB given to the printing process from OS
             0 MiB allocation reported by mallinfo(arena+hblkhd)
           182 MiB available memory on the node where the printing process lives
------------------
     ethr =  3.78E-06,  avg # of iterations =  1.0

     negative rho (up, down):  2.140E-02 0.000E+00

     total cpu time spent up to now is       10.5 secs

     total energy              =      -2.31898786 Ry
     estimated scf accuracy    <       0.00000081 Ry

     iteration #  3     ecut=    30.00 Ry     beta= 0.70
     Davidson diagonalization with overlap

---- Real-time Memory Report at c_bands before calling an iterative solver
           487 MiB given to the printing process from OS
             0 MiB allocation reported by mallinfo(arena+hblkhd)
           163 MiB available memory on the node where the printing process lives
------------------
     ethr =  4.05E-08,  avg # of iterations =  2.0

     negative rho (up, down):  2.139E-02 0.000E+00

     total cpu time spent up to now is       11.5 secs

     total energy              =      -2.31899662 Ry
     estimated scf accuracy    <       0.00000004 Ry

     iteration #  4     ecut=    30.00 Ry     beta= 0.70
     Davidson diagonalization with overlap

---- Real-time Memory Report at c_bands before calling an iterative solver
           487 MiB given to the printing process from OS
             0 MiB allocation reported by mallinfo(arena+hblkhd)
           145 MiB available memory on the node where the printing process lives
------------------
     ethr =  1.98E-09,  avg # of iterations =  2.0

     negative rho (up, down):  2.139E-02 0.000E+00

     total cpu time spent up to now is       12.5 secs

     End of self-consistent calculation

          k =-0.5000-0.5000-0.5000 ( 74736 PWs)   bands (ev):

   -10.2810  -0.6125

     occupation numbers 
     1.0000   0.0000

     highest occupied, lowest unoccupied level (ev):   -10.2810   -0.6125

!    total energy              =      -2.31899743 Ry
     estimated scf accuracy    <          2.6E-11 Ry

     The total energy is the sum of the following terms:
     one-electron contribution =      -4.18799103 Ry
     hartree contribution      =       2.22305581 Ry
     xc contribution           =      -1.37592001 Ry
     ewald contribution        =       1.02185780 Ry

     convergence has been achieved in   4 iterations

     Forces acting on atoms (cartesian axes, Ry/au):

     atom    1 type  1   force =     0.00787767    0.00000000    0.00000000
     atom    2 type  1   force =    -0.00787767    0.00000000    0.00000000
     The non-local contrib.  to forces
     atom    1 type  1   force =     0.10453832    0.00000000    0.00000000
     atom    2 type  1   force =    -0.10462604    0.00000000    0.00000000
     The ionic contribution  to forces
     atom    1 type  1   force =    -0.97933868   -0.00000000   -0.00000000
     atom    2 type  1   force =     0.97933868    0.00000000   -0.00000000
     The local contribution  to forces
     atom    1 type  1   force =     0.88263138    0.00000000    0.00000000
     atom    2 type  1   force =    -0.88262304    0.00000000    0.00000000
     The core correction contribution to forces
     atom    1 type  1   force =     0.00000000    0.00000000    0.00000000
     atom    2 type  1   force =     0.00000000    0.00000000    0.00000000
     The Hubbard contrib.    to forces
     atom    1 type  1   force =     0.00000000    0.00000000    0.00000000
     atom    2 type  1   force =     0.00000000    0.00000000    0.00000000
     The SCF correction term to forces
     atom    1 type  1   force =     0.00000775    0.00000000    0.00000000
     atom    2 type  1   force =    -0.00000618    0.00000000    0.00000000

     Total force =     0.011141     Total SCF correction =     0.000010
     Energy error            =      5.1E-04 Ry
     Gradient error          =      7.9E-03 Ry/Bohr

     number of scf cycles    =   2
     number of bfgs steps    =   1

     energy             old  =      -2.3184908177 Ry
     energy             new  =      -2.3189974316 Ry

     CASE: energy            _new < energy            _old

     new trust radius        =       0.0051845557 bohr
     new conv_thr            =       0.0000000005 Ry


ATOMIC_POSITIONS (angstrom)
H            -0.0052816470        0.0000000000        0.0000000000
H             0.7452816470        0.0000000000        0.0000000000



     Writing config-only to output data dir ./.save/
     NEW-OLD atomic charge density approx. for the potential

     negative rho (up, down):  2.146E-02 0.000E+00

     total cpu time spent up to now is       13.6 secs

     Self-consistent Calculation

     iteration #  1     ecut=    30.00 Ry     beta= 0.70
     Davidson diagonalization with overlap

---- Real-time Memory Report at c_bands before calling an iterative solver
           487 MiB given to the printing process from OS
             0 MiB allocation reported by mallinfo(arena+hblkhd)
           363 MiB available memory on the node where the printing process lives
------------------
     ethr =  1.00E-06,  avg # of iterations =  2.0

     negative rho (up, down):  2.159E-02 0.000E+00

     total cpu time spent up to now is       14.7 secs

     total energy              =      -2.31891770 Ry
     estimated scf accuracy    <       0.00000806 Ry

     iteration #  2     ecut=    30.00 Ry     beta= 0.70
     Davidson diagonalization with overlap

---- Real-time Memory Report at c_bands before calling an iterative solver
           487 MiB given to the printing process from OS
             0 MiB allocation reported by mallinfo(arena+hblkhd)
           182 MiB available memory on the node where the printing process lives
------------------
     ethr =  4.03E-07,  avg # of iterations =  1.0

     negative rho (up, down):  2.162E-02 0.000E+00

     total cpu time spent up to now is       15.7 secs

     total energy              =      -2.31890351 Ry
     estimated scf accuracy    <       0.00000017 Ry

     iteration #  3     ecut=    30.00 Ry     beta= 0.70
     Davidson diagonalization with overlap

---- Real-time Memory Report at c_bands before calling an iterative solver
           487 MiB given to the printing process from OS
             0 MiB allocation reported by mallinfo(arena+hblkhd)
           163 MiB available memory on the node where the printing process lives
------------------
     ethr =  8.38E-09,  avg # of iterations =  2.0

     negative rho (up, down):  2.162E-02 0.000E+00

     total cpu time spent up to now is       16.7 secs

     total energy              =      -2.31890021 Ry
     estimated scf accuracy    <          6.5E-09 Ry

     iteration #  4     ecut=    30.00 Ry     beta= 0.70
     Davidson diagonalization with overlap

---- Real-time Memory Report at c_bands before calling an iterative solver
           487 MiB given to the printing process from OS
             0 MiB allocation reported by mallinfo(arena+hblkhd)
           145 MiB available memory on the node where the printing process lives
------------------
     ethr =  3.26E-10,  avg # of iterations =  2.0

     negative rho (up, down):  2.163E-02 0.000E+00

     total cpu time spent up to now is       17.7 secs

     End of self-consistent calculation

          k =-0.5000-0.5000-0.5000 ( 74736 PWs)   bands (ev):

   -10.3082  -0.6261

     occupation numbers 
     1.0000   0.0000

     highest occupied, lowest unoccupied level (ev):   -10.3082   -0.6261

!    total energy              =      -2.31890212 Ry
     estimated scf accuracy    <          4.5E-10 Ry

     The total energy is the sum of the following terms:
     one-electron contribution =      -4.20201811 Ry
     hartree contribution      =       2.23042573 Ry
     xc contribution           =      -1.37939670 Ry
     ewald contribution        =       1.03208696 Ry

     convergence has been achieved in   4 iterations

     Forces acting on atoms (cartesian axes, Ry/au):

     atom    1 type  1   force =     0.00032144    0.00000000    0.00000000
     atom    2 type  1   force =    -0.00032144    0.00000000    0.00000000
     The non-local contrib.  to forces
     atom    1 type  1   force =     0.10577304    0.00000000    0.00000000
     atom    2 type  1   force =    -0.10578598    0.00000000    0.00000000
     The ionic contribution  to forces
     atom    1 type  1   force =    -0.99372004    0.00000000   -0.00000000
     atom    2 type  1   force =     0.99372004    0.00000000   -0.00000000
     The local contribution  to forces
     atom    1 type  1   force =     0.88826750    0.00000000    0.00000000
     atom    2 type  1   force =    -0.88825990    0.00000000    0.00000000
     The core correction contribution to forces
     atom    1 type  1   force =     0.00000000    0.00000000    0.00000000
     atom    2 type  1   force =     0.00000000    0.00000000    0.00000000
     The Hubbard contrib.    to forces
     atom    1 type  1   force =     0.00000000    0.00000000    0.00000000
     atom    2 type  1   force =     0.00000000    0.00000000    0.00000000
     The SCF correction term to forces
     atom    1 type  1   force =    -0.00000463    0.00000000   -0.00000000
     atom    2 type  1   force =    -0.00000118   -0.00000000   -0.00000000

     Total force =     0.000455     Total SCF correction =     0.000005
     Energy error            =      9.5E-05 Ry
     Gradient error          =      3.2E-04 Ry/Bohr

     bfgs converged in   3 scf cycles and   2 bfgs steps
     (criteria: energy <  1.0E-04 Ry, force <  1.0E-03 Ry/Bohr)

     End of BFGS Geometry Optimization

     Final energy             =      -2.3189021195 Ry

     File ./.bfgs deleted, as requested
Begin final coordinates

ATOMIC_POSITIONS (angstrom)
H            -0.0052816470        0.0000000000        0.0000000000
H             0.7452816470        0.0000000000        0.0000000000
End final coordinates



     Writing all to output data dir ./.save/

     init_run     :      1.01s CPU      1.04s WALL (       1 calls)
     electrons    :     14.54s CPU     14.65s WALL (       3 calls)
     update_pot   :      1.34s CPU      1.37s WALL (       2 calls)
     forces       :      0.77s CPU      0.79s WALL (       3 calls)

     Called by init_run:
     wfcinit      :      0.10s CPU      0.10s WALL (       1 calls)
     wfcinit:atom :      0.00s CPU      0.00s WALL (       1 calls)
     wfcinit:wfcr :      0.09s CPU      0.09s WALL (       1 calls)
     potinit      :      0.58s CPU      0.59s WALL (       1 calls)
     hinit0       :      0.05s CPU      0.06s WALL (       1 calls)

     Called by electrons:
     c_bands      :      3.84s CPU      3.84s WALL (      13 calls)
     sum_band     :      1.93s CPU      1.95s WALL (      13 calls)
     v_of_rho     :      8.75s CPU      8.80s WALL (      16 calls)
     v_h          :      0.62s CPU      0.62s WALL (      16 calls)
     v_xc         :      8.13s CPU      8.18s WALL (      16 calls)
     newd         :      0.72s CPU      0.73s WALL (      16 calls)
     mix_rho      :      0.75s CPU      0.78s WALL (      13 calls)

     Called by c_bands:
     init_us_2    :      0.05s CPU      0.05s WALL (      27 calls)
     init_us_2:cp :      0.05s CPU      0.05s WALL (      27 calls)
     cegterg      :      3.81s CPU      3.81s WALL (      13 calls)

     Called by sum_band:
     sum_band:wei :      0.00s CPU      0.00s WALL (      13 calls)
     sum_band:loo :      0.60s CPU      0.60s WALL (      13 calls)
     sum_band:buf :      0.00s CPU      0.00s WALL (      13 calls)
     sum_band:ini :      0.03s CPU      0.03s WALL (      13 calls)
     sum_band:cal :      0.01s CPU      0.01s WALL (      13 calls)
     sum_band:bec :      0.00s CPU      0.00s WALL (      13 calls)
     addusdens    :      0.16s CPU      0.17s WALL (      13 calls)
     addusd:skk   :      0.05s CPU      0.05s WALL (      13 calls)
     addusd:dgemm :      0.03s CPU      0.04s WALL (      13 calls)
     addusd:qvan2 :      0.04s CPU      0.05s WALL (      13 calls)

     Called by *egterg:
     cdiaghg      :      0.00s CPU      0.00s WALL (      50 calls)
     cegterg:over :      0.05s CPU      0.05s WALL (      39 calls)
     cegterg:upda :      0.03s CPU      0.03s WALL (      39 calls)
     cegterg:last :      0.07s CPU      0.07s WALL (      33 calls)
     h_psi        :      3.67s CPU      3.67s WALL (      53 calls)
     s_psi        :      0.02s CPU      0.02s WALL (      53 calls)
     g_psi        :      0.01s CPU      0.01s WALL (      39 calls)

     Called by h_psi:
     h_psi:calbec :      0.02s CPU      0.02s WALL (      53 calls)
     vloc_psi     :      3.62s CPU      3.62s WALL (      53 calls)
     add_vuspsi   :      0.02s CPU      0.02s WALL (      53 calls)

     General routines
     calbec       :      0.04s CPU      0.04s WALL (      78 calls)
     fft          :      5.40s CPU      5.40s WALL (     184 calls)
     ffts         :      0.39s CPU      0.39s WALL (      13 calls)
     fftw         :      3.76s CPU      3.77s WALL (     196 calls)


     PWSCF        :     17.90s CPU     18.11s WALL


   This run was terminated on:   4:11:42  28Feb2022            

=------------------------------------------------------------------------------=
   JOB DONE.
=------------------------------------------------------------------------------=
