
     Program PWSCF v.7.0 starts on 28Feb2022 at  2:57: 5 

     This program is part of the open-source Quantum ESPRESSO suite
     for quantum simulation of materials; please cite
         "P. Giannozzi et al., J. Phys.:Condens. Matter 21 395502 (2009);
         "P. Giannozzi et al., J. Phys.:Condens. Matter 29 465901 (2017);
         "P. Giannozzi et al., J. Chem. Phys. 152 154105 (2020);
          URL http://www.quantum-espresso.org", 
     in publications or presentations arising from this work. More details at
     http://www.quantum-espresso.org/quote

     Serial version
     560 MiB available memory on the printing compute node when the environment starts

     Waiting for input...
     Reading input from standard input

     Current dimensions of program PWSCF are:
     Max number of different atomic species (ntypx) = 10
     Max number of k-points (npk) =  40000
     Max angular momentum in pseudopotentials (lmaxx) =  4

    ============================================================
    |  pseudopotential report for atomic species:  1           |
    |        pseudo potential version   7   3   2              |
    ------------------------------------------------------------
    |  hydrogen            PBE                  exchange-corr  |
    |  z =   1.    zv( 1) =   1.    exfact =   5.00000         |
    |  ifpcor =  0           atomic energy =  -0.91772 Ry      |
    |  index    orbital      occupation    energy              |
    |    1        100           1.00       -0.48               |
    |  rinner =  0.5000                                        |
    |    new generation scheme:                                |
    |    nbeta =  1     kkbeta =  271     rcloc =    0.6000    |
    |    ibeta    l     epsilon   rcut                         |
    |      1       0      -0.48   0.80                         |
    ============================================================

     IMPORTANT: XC functional enforced from input :
     Exchange-correlation= BLYP
                           (   1   3   1   3   0   0   0)
     Any further DFT definition will be discarded
     Please, verify this is what you really want


     G-vector sticks info
     --------------------
     sticks:   dense  smooth     PW     G-vecs:    dense   smooth      PW
     Sum        2869    2869    793               115313   115313   17071

     Using Slab Decomposition



     bravais-lattice index     =            1
     lattice parameter (alat)  =      30.0000  a.u.
     unit-cell volume          =   27000.0000 (a.u.)^3
     number of atoms/cell      =            2
     number of atomic types    =            1
     number of electrons       =         2.00
     number of Kohn-Sham states=            2
     kinetic-energy cutoff     =      10.0000  Ry
     charge density cutoff     =      40.0000  Ry
     scf convergence threshold =      1.0E-08
     mixing beta               =       0.7000
     number of iterations used =            8  plain     mixing
     energy convergence thresh.=      1.0E-04
     force convergence thresh. =      1.0E-03
     Exchange-correlation= BLYP
                           (   1   3   1   3   0   0   0)
     nstep                     =           50


     celldm(1)=  30.000000  celldm(2)=   0.000000  celldm(3)=   0.000000
     celldm(4)=   0.000000  celldm(5)=   0.000000  celldm(6)=   0.000000

     crystal axes: (cart. coord. in units of alat)
               a(1) = (   1.000000   0.000000   0.000000 )  
               a(2) = (   0.000000   1.000000   0.000000 )  
               a(3) = (   0.000000   0.000000   1.000000 )  

     reciprocal axes: (cart. coord. in units 2 pi/alat)
               b(1) = (  1.000000  0.000000  0.000000 )  
               b(2) = (  0.000000  1.000000  0.000000 )  
               b(3) = (  0.000000  0.000000  1.000000 )  


     PseudoPot. # 1 for hy read from file:
     /root/q-e/pseudo/H_US.van
     MD5 check sum: a9a9bfe98ff56cf4de197d71fc46bb44
     Pseudo is Ultrasoft, Zval =  1.0
     Generated by Vanderbilt code, v. 7.3.2
     Using radial grid of  399 points,  1 beta functions with: 
                l(1) =   0
     Q(r) pseudized with  8 coefficients,  rinner =    0.500

     atomic species   valence    mass     pseudopotential
        H              1.00     1.00784     hy( 1.00)

      8 Sym. Ops. (no inversion) found


                                    s                        frac. trans.

      isym =  1     identity                                     

 cryst.   s( 1) = (     1          0          0      )
                  (     0          1          0      )
                  (     0          0          1      )

 cart.    s( 1) = (  1.0000000  0.0000000  0.0000000 )
                  (  0.0000000  1.0000000  0.0000000 )
                  (  0.0000000  0.0000000  1.0000000 )


      isym =  2     180 deg rotation - cart. axis [1,0,0]        

 cryst.   s( 2) = (     1          0          0      )
                  (     0         -1          0      )
                  (     0          0         -1      )

 cart.    s( 2) = (  1.0000000  0.0000000  0.0000000 )
                  (  0.0000000 -1.0000000  0.0000000 )
                  (  0.0000000  0.0000000 -1.0000000 )


      isym =  3      90 deg rotation - cart. axis [-1,0,0]       

 cryst.   s( 3) = (     1          0          0      )
                  (     0          0         -1      )
                  (     0          1          0      )

 cart.    s( 3) = (  1.0000000  0.0000000  0.0000000 )
                  (  0.0000000  0.0000000  1.0000000 )
                  (  0.0000000 -1.0000000  0.0000000 )


      isym =  4      90 deg rotation - cart. axis [1,0,0]        

 cryst.   s( 4) = (     1          0          0      )
                  (     0          0          1      )
                  (     0         -1          0      )

 cart.    s( 4) = (  1.0000000  0.0000000  0.0000000 )
                  (  0.0000000  0.0000000 -1.0000000 )
                  (  0.0000000  1.0000000  0.0000000 )


      isym =  5     inv. 180 deg rotation - cart. axis [0,0,1]   

 cryst.   s( 5) = (     1          0          0      )
                  (     0          1          0      )
                  (     0          0         -1      )

 cart.    s( 5) = (  1.0000000  0.0000000  0.0000000 )
                  (  0.0000000  1.0000000  0.0000000 )
                  (  0.0000000  0.0000000 -1.0000000 )


      isym =  6     inv. 180 deg rotation - cart. axis [0,1,0]   

 cryst.   s( 6) = (     1          0          0      )
                  (     0         -1          0      )
                  (     0          0          1      )

 cart.    s( 6) = (  1.0000000  0.0000000  0.0000000 )
                  (  0.0000000 -1.0000000  0.0000000 )
                  (  0.0000000  0.0000000  1.0000000 )


      isym =  7     inv. 180 deg rotation - cart. axis [0,1,1]   

 cryst.   s( 7) = (     1          0          0      )
                  (     0          0         -1      )
                  (     0         -1          0      )

 cart.    s( 7) = (  1.0000000  0.0000000  0.0000000 )
                  (  0.0000000  0.0000000 -1.0000000 )
                  (  0.0000000 -1.0000000  0.0000000 )


      isym =  8     inv. 180 deg rotation - cart. axis [0,1,-1]  

 cryst.   s( 8) = (     1          0          0      )
                  (     0          0          1      )
                  (     0          1          0      )

 cart.    s( 8) = (  1.0000000  0.0000000  0.0000000 )
                  (  0.0000000  0.0000000  1.0000000 )
                  (  0.0000000  1.0000000  0.0000000 )


     point group C_4v (4mm) 
     there are  5 classes
     the character table:

       E     2C4   C2    2s_v  2s_d 
A_1    1.00  1.00  1.00  1.00  1.00
A_2    1.00  1.00  1.00 -1.00 -1.00
B_1    1.00 -1.00  1.00  1.00 -1.00
B_2    1.00 -1.00  1.00 -1.00  1.00
E      2.00  0.00 -2.00  0.00  0.00

     the symmetry operations in each class and the name of the first element:

     E        1
          identity                                               
     2C4      3    4
           90 deg rotation - cart. axis [-1,0,0]                 
     C2       2
          180 deg rotation - cart. axis [1,0,0]                  
     2s_v     5    6
          inv. 180 deg rotation - cart. axis [0,0,1]             
     2s_d     7    8
          inv. 180 deg rotation - cart. axis [0,1,1]             

   Cartesian axes

     site n.     atom                  positions (alat units)
         1           H   tau(   1) = (   0.0000000   0.0000000   0.0000000  )
         2           H   tau(   2) = (   0.0491329   0.0000000   0.0000000  )

   Crystallographic axes

     site n.     atom                  positions (cryst. coord.)
         1           H   tau(   1) = (  0.0000000  0.0000000  0.0000000  )
         2           H   tau(   2) = (  0.0491329  0.0000000  0.0000000  )

     number of k points=     1
                       cart. coord. in units 2pi/alat
        k(    1) = (  -0.5000000  -0.5000000  -0.5000000), wk =   2.0000000

                       cryst. coord.
        k(    1) = (  -0.5000000  -0.5000000  -0.5000000), wk =   2.0000000

     Dense  grid:   115313 G-vectors     FFT dimensions: (  64,  64,  64)

     Dynamical RAM for                 wfc:       0.44 MB

     Dynamical RAM for     wfc (w. buffer):       0.44 MB

     Dynamical RAM for           str. fact:       1.76 MB

     Dynamical RAM for           local pot:       0.00 MB

     Dynamical RAM for          nlocal pot:       0.44 MB

     Dynamical RAM for                qrad:       0.00 MB

     Dynamical RAM for          rho,v,vnew:      11.28 MB

     Dynamical RAM for               rhoin:       3.76 MB

     Dynamical RAM for            rho*nmix:      28.15 MB

     Dynamical RAM for           G-vectors:       7.48 MB

     Dynamical RAM for          h,s,v(r/c):       0.00 MB

     Dynamical RAM for          <psi|beta>:       0.00 MB

     Dynamical RAM for                 psi:       0.88 MB

     Dynamical RAM for                hpsi:       0.88 MB

     Dynamical RAM for                spsi:       0.88 MB

     Dynamical RAM for      wfcinit/wfcrot:       0.88 MB

     Dynamical RAM for           addusdens:      10.56 MB

     Dynamical RAM for          addusforce:      14.96 MB

     Estimated static dynamical RAM per process >      38.68 MB

     Estimated max dynamical RAM per process >      81.79 MB

     Initial potential from superposition of free atoms

     starting charge       2.0000, renormalised to       2.0000

     negative rho (up, down):  2.058E-01 0.000E+00
     Starting wfcs are    2 randomized atomic wfcs

     total cpu time spent up to now is        0.2 secs

     Self-consistent Calculation

     iteration #  1     ecut=    10.00 Ry     beta= 0.70
     Davidson diagonalization with overlap

---- Real-time Memory Report at c_bands before calling an iterative solver
            82 MiB given to the printing process from OS
             0 MiB allocation reported by mallinfo(arena+hblkhd)
           510 MiB available memory on the node where the printing process lives
------------------
     ethr =  1.00E-02,  avg # of iterations =  5.0

     negative rho (up, down):  2.982E-01 0.000E+00

     total cpu time spent up to now is        0.5 secs

     total energy              =      -2.24844121 Ry
     estimated scf accuracy    <       0.10269833 Ry

     iteration #  2     ecut=    10.00 Ry     beta= 0.70
     Davidson diagonalization with overlap

---- Real-time Memory Report at c_bands before calling an iterative solver
           103 MiB given to the printing process from OS
             0 MiB allocation reported by mallinfo(arena+hblkhd)
           470 MiB available memory on the node where the printing process lives
------------------
     ethr =  5.13E-03,  avg # of iterations =  1.0

     negative rho (up, down):  3.163E-01 0.000E+00

     total cpu time spent up to now is        0.7 secs

     total energy              =      -2.24649492 Ry
     estimated scf accuracy    <       0.00149061 Ry

     iteration #  3     ecut=    10.00 Ry     beta= 0.70
     Davidson diagonalization with overlap

---- Real-time Memory Report at c_bands before calling an iterative solver
           107 MiB given to the printing process from OS
             0 MiB allocation reported by mallinfo(arena+hblkhd)
           467 MiB available memory on the node where the printing process lives
------------------
     ethr =  7.45E-05,  avg # of iterations =  9.0

     negative rho (up, down):  3.150E-01 0.000E+00

     total cpu time spent up to now is        0.9 secs

     total energy              =      -2.24749143 Ry
     estimated scf accuracy    <       0.00003397 Ry

     iteration #  4     ecut=    10.00 Ry     beta= 0.70
     Davidson diagonalization with overlap

---- Real-time Memory Report at c_bands before calling an iterative solver
           110 MiB given to the printing process from OS
             0 MiB allocation reported by mallinfo(arena+hblkhd)
           463 MiB available memory on the node where the printing process lives
------------------
     ethr =  1.70E-06,  avg # of iterations =  5.0

     negative rho (up, down):  3.162E-01 0.000E+00

     total cpu time spent up to now is        1.2 secs

     total energy              =      -2.24703161 Ry
     estimated scf accuracy    <       0.00000951 Ry

     iteration #  5     ecut=    10.00 Ry     beta= 0.70
     Davidson diagonalization with overlap

---- Real-time Memory Report at c_bands before calling an iterative solver
           114 MiB given to the printing process from OS
             0 MiB allocation reported by mallinfo(arena+hblkhd)
           460 MiB available memory on the node where the printing process lives
------------------
     ethr =  4.76E-07,  avg # of iterations =  2.0

     negative rho (up, down):  3.162E-01 0.000E+00

     total cpu time spent up to now is        1.4 secs

     total energy              =      -2.24697425 Ry
     estimated scf accuracy    <       0.00000014 Ry

     iteration #  6     ecut=    10.00 Ry     beta= 0.70
     Davidson diagonalization with overlap

---- Real-time Memory Report at c_bands before calling an iterative solver
           117 MiB given to the printing process from OS
             0 MiB allocation reported by mallinfo(arena+hblkhd)
           456 MiB available memory on the node where the printing process lives
------------------
     ethr =  6.77E-09,  avg # of iterations =  3.0

     negative rho (up, down):  3.162E-01 0.000E+00

     total cpu time spent up to now is        1.6 secs

     total energy              =      -2.24702623 Ry
     estimated scf accuracy    <       0.00000003 Ry

     iteration #  7     ecut=    10.00 Ry     beta= 0.70
     Davidson diagonalization with overlap

---- Real-time Memory Report at c_bands before calling an iterative solver
           121 MiB given to the printing process from OS
             0 MiB allocation reported by mallinfo(arena+hblkhd)
           453 MiB available memory on the node where the printing process lives
------------------
     ethr =  1.70E-09,  avg # of iterations =  3.0

     negative rho (up, down):  3.162E-01 0.000E+00

     total cpu time spent up to now is        1.8 secs

     total energy              =      -2.24699216 Ry
     estimated scf accuracy    <       0.00000009 Ry

     iteration #  8     ecut=    10.00 Ry     beta= 0.70
     Davidson diagonalization with overlap

---- Real-time Memory Report at c_bands before calling an iterative solver
           124 MiB given to the printing process from OS
             0 MiB allocation reported by mallinfo(arena+hblkhd)
           449 MiB available memory on the node where the printing process lives
------------------
     ethr =  1.70E-09,  avg # of iterations =  3.0

     negative rho (up, down):  3.162E-01 0.000E+00

     total cpu time spent up to now is        2.0 secs

     total energy              =      -2.24701851 Ry
     estimated scf accuracy    <       0.00000021 Ry

     iteration #  9     ecut=    10.00 Ry     beta= 0.70
     Davidson diagonalization with overlap

---- Real-time Memory Report at c_bands before calling an iterative solver
           128 MiB given to the printing process from OS
             0 MiB allocation reported by mallinfo(arena+hblkhd)
           446 MiB available memory on the node where the printing process lives
------------------
     ethr =  1.70E-09,  avg # of iterations =  3.0

     negative rho (up, down):  3.162E-01 0.000E+00

     total cpu time spent up to now is        2.3 secs

     total energy              =      -2.24701285 Ry
     estimated scf accuracy    <       0.00000026 Ry

     iteration # 10     ecut=    10.00 Ry     beta= 0.70
     Davidson diagonalization with overlap

---- Real-time Memory Report at c_bands before calling an iterative solver
           131 MiB given to the printing process from OS
             0 MiB allocation reported by mallinfo(arena+hblkhd)
           442 MiB available memory on the node where the printing process lives
------------------
     ethr =  1.70E-09,  avg # of iterations =  3.0

     negative rho (up, down):  3.161E-01 0.000E+00

     total cpu time spent up to now is        2.5 secs

     total energy              =      -2.24704102 Ry
     estimated scf accuracy    <       0.00000006 Ry

     iteration # 11     ecut=    10.00 Ry     beta= 0.70
     Davidson diagonalization with overlap

---- Real-time Memory Report at c_bands before calling an iterative solver
           131 MiB given to the printing process from OS
             0 MiB allocation reported by mallinfo(arena+hblkhd)
           442 MiB available memory on the node where the printing process lives
------------------
     ethr =  1.70E-09,  avg # of iterations =  4.0

     negative rho (up, down):  3.161E-01 0.000E+00

     total cpu time spent up to now is        2.7 secs

     total energy              =      -2.24700483 Ry
     estimated scf accuracy    <       0.00000014 Ry

     iteration # 12     ecut=    10.00 Ry     beta= 0.70
     Davidson diagonalization with overlap

---- Real-time Memory Report at c_bands before calling an iterative solver
           131 MiB given to the printing process from OS
             0 MiB allocation reported by mallinfo(arena+hblkhd)
           442 MiB available memory on the node where the printing process lives
------------------
     ethr =  1.70E-09,  avg # of iterations =  4.0

     negative rho (up, down):  3.161E-01 0.000E+00

     total cpu time spent up to now is        3.0 secs

     total energy              =      -2.24701971 Ry
     estimated scf accuracy    <       0.00000021 Ry

     iteration # 13     ecut=    10.00 Ry     beta= 0.70
     Davidson diagonalization with overlap

---- Real-time Memory Report at c_bands before calling an iterative solver
           131 MiB given to the printing process from OS
             0 MiB allocation reported by mallinfo(arena+hblkhd)
           442 MiB available memory on the node where the printing process lives
------------------
     ethr =  1.70E-09,  avg # of iterations =  1.0

     negative rho (up, down):  3.161E-01 0.000E+00

     total cpu time spent up to now is        3.2 secs

     total energy              =      -2.24704415 Ry
     estimated scf accuracy    <       0.00000021 Ry

     iteration # 14     ecut=    10.00 Ry     beta= 0.70
     Davidson diagonalization with overlap

---- Real-time Memory Report at c_bands before calling an iterative solver
           131 MiB given to the printing process from OS
             0 MiB allocation reported by mallinfo(arena+hblkhd)
           442 MiB available memory on the node where the printing process lives
------------------
     ethr =  1.70E-09,  avg # of iterations =  4.0

     negative rho (up, down):  3.161E-01 0.000E+00

     total cpu time spent up to now is        3.4 secs

     total energy              =      -2.24701015 Ry
     estimated scf accuracy    <       0.00000011 Ry

     iteration # 15     ecut=    10.00 Ry     beta= 0.70
     Davidson diagonalization with overlap

---- Real-time Memory Report at c_bands before calling an iterative solver
           131 MiB given to the printing process from OS
             0 MiB allocation reported by mallinfo(arena+hblkhd)
           442 MiB available memory on the node where the printing process lives
------------------
     ethr =  1.70E-09,  avg # of iterations =  4.0

     negative rho (up, down):  3.162E-01 0.000E+00

     total cpu time spent up to now is        3.6 secs

     total energy              =      -2.24701985 Ry
     estimated scf accuracy    <       0.00000010 Ry

     iteration # 16     ecut=    10.00 Ry     beta= 0.70
     Davidson diagonalization with overlap

---- Real-time Memory Report at c_bands before calling an iterative solver
           131 MiB given to the printing process from OS
             0 MiB allocation reported by mallinfo(arena+hblkhd)
           442 MiB available memory on the node where the printing process lives
------------------
     ethr =  1.70E-09,  avg # of iterations =  4.0

     negative rho (up, down):  3.162E-01 0.000E+00

     total cpu time spent up to now is        3.9 secs

     total energy              =      -2.24701604 Ry
     estimated scf accuracy    <       0.00000010 Ry

     iteration # 17     ecut=    10.00 Ry     beta= 0.70
     Davidson diagonalization with overlap

---- Real-time Memory Report at c_bands before calling an iterative solver
           131 MiB given to the printing process from OS
             0 MiB allocation reported by mallinfo(arena+hblkhd)
           442 MiB available memory on the node where the printing process lives
------------------
     ethr =  1.70E-09,  avg # of iterations =  2.0

     negative rho (up, down):  3.162E-01 0.000E+00

     total cpu time spent up to now is        4.1 secs

     total energy              =      -2.24702673 Ry
     estimated scf accuracy    <       0.00000008 Ry

     iteration # 18     ecut=    10.00 Ry     beta= 0.70
     Davidson diagonalization with overlap

---- Real-time Memory Report at c_bands before calling an iterative solver
           131 MiB given to the printing process from OS
             0 MiB allocation reported by mallinfo(arena+hblkhd)
           442 MiB available memory on the node where the printing process lives
------------------
     ethr =  1.70E-09,  avg # of iterations =  2.0

     negative rho (up, down):  3.162E-01 0.000E+00

     total cpu time spent up to now is        4.3 secs

     total energy              =      -2.24700093 Ry
     estimated scf accuracy    <       0.00000008 Ry

     iteration # 19     ecut=    10.00 Ry     beta= 0.70
     Davidson diagonalization with overlap

---- Real-time Memory Report at c_bands before calling an iterative solver
           131 MiB given to the printing process from OS
             0 MiB allocation reported by mallinfo(arena+hblkhd)
           442 MiB available memory on the node where the printing process lives
------------------
     ethr =  1.70E-09,  avg # of iterations =  4.0

     negative rho (up, down):  3.162E-01 0.000E+00

     total cpu time spent up to now is        4.5 secs

     total energy              =      -2.24697828 Ry
     estimated scf accuracy    <       0.00000009 Ry

     iteration # 20     ecut=    10.00 Ry     beta= 0.70
     Davidson diagonalization with overlap

---- Real-time Memory Report at c_bands before calling an iterative solver
           131 MiB given to the printing process from OS
             0 MiB allocation reported by mallinfo(arena+hblkhd)
           442 MiB available memory on the node where the printing process lives
------------------
     ethr =  1.70E-09,  avg # of iterations =  3.0

     negative rho (up, down):  3.162E-01 0.000E+00

     total cpu time spent up to now is        4.8 secs

     total energy              =      -2.24696924 Ry
     estimated scf accuracy    <       0.00000010 Ry

     iteration # 21     ecut=    10.00 Ry     beta= 0.70
     Davidson diagonalization with overlap

---- Real-time Memory Report at c_bands before calling an iterative solver
           131 MiB given to the printing process from OS
             0 MiB allocation reported by mallinfo(arena+hblkhd)
           442 MiB available memory on the node where the printing process lives
------------------
     ethr =  1.70E-09,  avg # of iterations =  4.0

     negative rho (up, down):  3.162E-01 0.000E+00

     total cpu time spent up to now is        5.0 secs

     total energy              =      -2.24700169 Ry
     estimated scf accuracy    <       0.00000020 Ry

     iteration # 22     ecut=    10.00 Ry     beta= 0.70
     Davidson diagonalization with overlap

---- Real-time Memory Report at c_bands before calling an iterative solver
           131 MiB given to the printing process from OS
             0 MiB allocation reported by mallinfo(arena+hblkhd)
           442 MiB available memory on the node where the printing process lives
------------------
     ethr =  1.70E-09,  avg # of iterations =  4.0

     negative rho (up, down):  3.162E-01 0.000E+00

     total cpu time spent up to now is        5.2 secs

     End of self-consistent calculation

          k =-0.5000-0.5000-0.5000 ( 14400 PWs)   bands (ev):

   -10.5985  -1.4976

     occupation numbers 
     1.0000   0.0000

     highest occupied, lowest unoccupied level (ev):   -10.5985   -1.4976

!    total energy              =      -2.24697606 Ry
     estimated scf accuracy    <          8.0E-09 Ry

     The total energy is the sum of the following terms:
     one-electron contribution =      -4.07967725 Ry
     hartree contribution      =       2.20366852 Ry
     xc contribution           =      -1.34986390 Ry
     ewald contribution        =       0.97889657 Ry

     convergence has been achieved in  22 iterations

     Forces acting on atoms (cartesian axes, Ry/au):

     atom    1 type  1   force =     0.14315460    0.00000000    0.00000000
     atom    2 type  1   force =    -0.14315460    0.00000000    0.00000000
     The non-local contrib.  to forces
     atom    1 type  1   force =     0.19822813    0.00000000    0.00000000
     atom    2 type  1   force =    -0.20024649    0.00000000    0.00000000
     The ionic contribution  to forces
     atom    1 type  1   force =    -0.92008009   -0.00000000   -0.00000000
     atom    2 type  1   force =     0.92008009    0.00000000   -0.00000000
     The local contribution  to forces
     atom    1 type  1   force =     0.86380773    0.00000000    0.00000000
     atom    2 type  1   force =    -0.86390832    0.00000000    0.00000000
     The core correction contribution to forces
     atom    1 type  1   force =     0.00000000    0.00000000    0.00000000
     atom    2 type  1   force =     0.00000000    0.00000000    0.00000000
     The Hubbard contrib.    to forces
     atom    1 type  1   force =     0.00000000    0.00000000    0.00000000
     atom    2 type  1   force =     0.00000000    0.00000000    0.00000000
     The SCF correction term to forces
     atom    1 type  1   force =     0.00107969    0.00000000    0.00000000
     atom    2 type  1   force =     0.00080098    0.00000000    0.00000000

     Total force =     0.202451     Total SCF correction =     0.001344

     BFGS Geometry Optimization
     Energy error            =      0.0E+00 Ry
     Gradient error          =      1.4E-01 Ry/Bohr

     number of scf cycles    =   1
     number of bfgs steps    =   0

     energy             new  =      -2.2469760629 Ry

     new trust radius        =       0.1431545954 bohr
     new conv_thr            =       0.0000000100 Ry


ATOMIC_POSITIONS (angstrom)
H             0.0757541495        0.0000000000        0.0000000000
H             0.7042458505        0.0000000000        0.0000000000



     Writing config-only to output data dir ./.save/
     NEW-OLD atomic charge density approx. for the potential

     negative rho (up, down):  3.250E-01 0.000E+00

     total cpu time spent up to now is        5.4 secs

     Self-consistent Calculation

     iteration #  1     ecut=    10.00 Ry     beta= 0.70
     Davidson diagonalization with overlap

---- Real-time Memory Report at c_bands before calling an iterative solver
           133 MiB given to the printing process from OS
             0 MiB allocation reported by mallinfo(arena+hblkhd)
           506 MiB available memory on the node where the printing process lives
------------------
     ethr =  1.00E-06,  avg # of iterations =  8.0

     negative rho (up, down):  3.819E-01 0.000E+00

     total cpu time spent up to now is        5.7 secs

     total energy              =      -2.20571492 Ry
     estimated scf accuracy    <       0.00516747 Ry

     iteration #  2     ecut=    10.00 Ry     beta= 0.70
     Davidson diagonalization with overlap

---- Real-time Memory Report at c_bands before calling an iterative solver
           133 MiB given to the printing process from OS
             0 MiB allocation reported by mallinfo(arena+hblkhd)
           468 MiB available memory on the node where the printing process lives
------------------
     ethr =  2.58E-04,  avg # of iterations =  1.0

     negative rho (up, down):  4.013E-01 0.000E+00

     total cpu time spent up to now is        5.9 secs

     total energy              =      -2.19741846 Ry
     estimated scf accuracy    <       0.00019723 Ry

     iteration #  3     ecut=    10.00 Ry     beta= 0.70
     Davidson diagonalization with overlap

---- Real-time Memory Report at c_bands before calling an iterative solver
           133 MiB given to the printing process from OS
             0 MiB allocation reported by mallinfo(arena+hblkhd)
           465 MiB available memory on the node where the printing process lives
------------------
     ethr =  9.86E-06,  avg # of iterations =  3.0

     negative rho (up, down):  4.006E-01 0.000E+00

     total cpu time spent up to now is        6.1 secs

     total energy              =      -2.19772233 Ry
     estimated scf accuracy    <       0.00013731 Ry

     iteration #  4     ecut=    10.00 Ry     beta= 0.70
     Davidson diagonalization with overlap

---- Real-time Memory Report at c_bands before calling an iterative solver
           133 MiB given to the printing process from OS
             0 MiB allocation reported by mallinfo(arena+hblkhd)
           461 MiB available memory on the node where the printing process lives
------------------
     ethr =  6.87E-06,  avg # of iterations =  2.0

     negative rho (up, down):  4.002E-01 0.000E+00

     total cpu time spent up to now is        6.3 secs

     total energy              =      -2.19796691 Ry
     estimated scf accuracy    <       0.00005968 Ry

     iteration #  5     ecut=    10.00 Ry     beta= 0.70
     Davidson diagonalization with overlap

---- Real-time Memory Report at c_bands before calling an iterative solver
           133 MiB given to the printing process from OS
             0 MiB allocation reported by mallinfo(arena+hblkhd)
           458 MiB available memory on the node where the printing process lives
------------------
     ethr =  2.98E-06,  avg # of iterations =  5.0

     negative rho (up, down):  4.009E-01 0.000E+00

     total cpu time spent up to now is        6.6 secs

     total energy              =      -2.19767434 Ry
     estimated scf accuracy    <       0.00001694 Ry

     iteration #  6     ecut=    10.00 Ry     beta= 0.70
     Davidson diagonalization with overlap

---- Real-time Memory Report at c_bands before calling an iterative solver
           133 MiB given to the printing process from OS
             0 MiB allocation reported by mallinfo(arena+hblkhd)
           454 MiB available memory on the node where the printing process lives
------------------
     ethr =  8.47E-07,  avg # of iterations =  2.0

     negative rho (up, down):  4.009E-01 0.000E+00

     total cpu time spent up to now is        6.8 secs

     total energy              =      -2.19769568 Ry
     estimated scf accuracy    <       0.00000094 Ry

     iteration #  7     ecut=    10.00 Ry     beta= 0.70
     Davidson diagonalization with overlap

---- Real-time Memory Report at c_bands before calling an iterative solver
           133 MiB given to the printing process from OS
             0 MiB allocation reported by mallinfo(arena+hblkhd)
           451 MiB available memory on the node where the printing process lives
------------------
     ethr =  4.68E-08,  avg # of iterations =  3.0

     negative rho (up, down):  4.009E-01 0.000E+00

     total cpu time spent up to now is        7.0 secs

     total energy              =      -2.19768054 Ry
     estimated scf accuracy    <       0.00000025 Ry

     iteration #  8     ecut=    10.00 Ry     beta= 0.70
     Davidson diagonalization with overlap

---- Real-time Memory Report at c_bands before calling an iterative solver
           133 MiB given to the printing process from OS
             0 MiB allocation reported by mallinfo(arena+hblkhd)
           447 MiB available memory on the node where the printing process lives
------------------
     ethr =  1.24E-08,  avg # of iterations =  2.0

     negative rho (up, down):  4.013E-01 0.000E+00

     total cpu time spent up to now is        7.2 secs

     total energy              =      -2.19749082 Ry
     estimated scf accuracy    <       0.00000027 Ry

     iteration #  9     ecut=    10.00 Ry     beta= 0.70
     Davidson diagonalization with overlap

---- Real-time Memory Report at c_bands before calling an iterative solver
           133 MiB given to the printing process from OS
             0 MiB allocation reported by mallinfo(arena+hblkhd)
           444 MiB available memory on the node where the printing process lives
------------------
     ethr =  1.24E-08,  avg # of iterations =  3.0

     negative rho (up, down):  4.013E-01 0.000E+00

     total cpu time spent up to now is        7.5 secs

     total energy              =      -2.19753431 Ry
     estimated scf accuracy    <       0.00000106 Ry

     iteration # 10     ecut=    10.00 Ry     beta= 0.70
     Davidson diagonalization with overlap

---- Real-time Memory Report at c_bands before calling an iterative solver
           134 MiB given to the printing process from OS
             0 MiB allocation reported by mallinfo(arena+hblkhd)
           440 MiB available memory on the node where the printing process lives
------------------
     ethr =  1.24E-08,  avg # of iterations =  3.0

     negative rho (up, down):  4.013E-01 0.000E+00

     total cpu time spent up to now is        7.7 secs

     total energy              =      -2.19750766 Ry
     estimated scf accuracy    <       0.00000098 Ry

     iteration # 11     ecut=    10.00 Ry     beta= 0.70
     Davidson diagonalization with overlap

---- Real-time Memory Report at c_bands before calling an iterative solver
           134 MiB given to the printing process from OS
             0 MiB allocation reported by mallinfo(arena+hblkhd)
           440 MiB available memory on the node where the printing process lives
------------------
     ethr =  1.24E-08,  avg # of iterations =  3.0

     negative rho (up, down):  4.012E-01 0.000E+00

     total cpu time spent up to now is        7.9 secs

     total energy              =      -2.19753745 Ry
     estimated scf accuracy    <       0.00000052 Ry

     iteration # 12     ecut=    10.00 Ry     beta= 0.70
     Davidson diagonalization with overlap

---- Real-time Memory Report at c_bands before calling an iterative solver
           134 MiB given to the printing process from OS
             0 MiB allocation reported by mallinfo(arena+hblkhd)
           440 MiB available memory on the node where the printing process lives
------------------
     ethr =  1.24E-08,  avg # of iterations =  3.0

     negative rho (up, down):  4.012E-01 0.000E+00

     total cpu time spent up to now is        8.1 secs

     total energy              =      -2.19756236 Ry
     estimated scf accuracy    <       0.00000006 Ry

     iteration # 13     ecut=    10.00 Ry     beta= 0.70
     Davidson diagonalization with overlap

---- Real-time Memory Report at c_bands before calling an iterative solver
           134 MiB given to the printing process from OS
             0 MiB allocation reported by mallinfo(arena+hblkhd)
           440 MiB available memory on the node where the printing process lives
------------------
     ethr =  3.22E-09,  avg # of iterations =  2.0

     negative rho (up, down):  4.012E-01 0.000E+00

     total cpu time spent up to now is        8.4 secs

     total energy              =      -2.19755596 Ry
     estimated scf accuracy    <       0.00000003 Ry

     iteration # 14     ecut=    10.00 Ry     beta= 0.70
     Davidson diagonalization with overlap

---- Real-time Memory Report at c_bands before calling an iterative solver
           134 MiB given to the printing process from OS
             0 MiB allocation reported by mallinfo(arena+hblkhd)
           440 MiB available memory on the node where the printing process lives
------------------
     ethr =  1.45E-09,  avg # of iterations =  2.0

     negative rho (up, down):  4.012E-01 0.000E+00

     total cpu time spent up to now is        8.6 secs

     total energy              =      -2.19756336 Ry
     estimated scf accuracy    <       0.00000002 Ry

     iteration # 15     ecut=    10.00 Ry     beta= 0.70
     Davidson diagonalization with overlap

---- Real-time Memory Report at c_bands before calling an iterative solver
           134 MiB given to the printing process from OS
             0 MiB allocation reported by mallinfo(arena+hblkhd)
           440 MiB available memory on the node where the printing process lives
------------------
     ethr =  9.40E-10,  avg # of iterations =  3.0

     negative rho (up, down):  4.012E-01 0.000E+00

     total cpu time spent up to now is        8.8 secs

     total energy              =      -2.19756976 Ry
     estimated scf accuracy    <       0.00000004 Ry

     iteration # 16     ecut=    10.00 Ry     beta= 0.70
     Davidson diagonalization with overlap

---- Real-time Memory Report at c_bands before calling an iterative solver
           134 MiB given to the printing process from OS
             0 MiB allocation reported by mallinfo(arena+hblkhd)
           440 MiB available memory on the node where the printing process lives
------------------
     ethr =  9.40E-10,  avg # of iterations =  2.0

     negative rho (up, down):  4.011E-01 0.000E+00

     total cpu time spent up to now is        9.0 secs

     total energy              =      -2.19757751 Ry
     estimated scf accuracy    <       0.00000002 Ry

     iteration # 17     ecut=    10.00 Ry     beta= 0.70
     Davidson diagonalization with overlap

---- Real-time Memory Report at c_bands before calling an iterative solver
           134 MiB given to the printing process from OS
             0 MiB allocation reported by mallinfo(arena+hblkhd)
           440 MiB available memory on the node where the printing process lives
------------------
     ethr =  9.40E-10,  avg # of iterations =  2.0

     negative rho (up, down):  4.011E-01 0.000E+00

     total cpu time spent up to now is        9.2 secs

     total energy              =      -2.19757955 Ry
     estimated scf accuracy    <       0.00000001 Ry

     iteration # 18     ecut=    10.00 Ry     beta= 0.70
     Davidson diagonalization with overlap

---- Real-time Memory Report at c_bands before calling an iterative solver
           134 MiB given to the printing process from OS
             0 MiB allocation reported by mallinfo(arena+hblkhd)
           440 MiB available memory on the node where the printing process lives
------------------
     ethr =  5.67E-10,  avg # of iterations =  2.0

     negative rho (up, down):  4.011E-01 0.000E+00

     total cpu time spent up to now is        9.5 secs

     total energy              =      -2.19757831 Ry
     estimated scf accuracy    <       0.00000001 Ry

     iteration # 19     ecut=    10.00 Ry     beta= 0.70
     Davidson diagonalization with overlap

---- Real-time Memory Report at c_bands before calling an iterative solver
           134 MiB given to the printing process from OS
             0 MiB allocation reported by mallinfo(arena+hblkhd)
           440 MiB available memory on the node where the printing process lives
------------------
     ethr =  5.67E-10,  avg # of iterations =  1.0

     negative rho (up, down):  4.012E-01 0.000E+00

     total cpu time spent up to now is        9.6 secs

     End of self-consistent calculation

          k =-0.5000-0.5000-0.5000 ( 14400 PWs)   bands (ev):

   -11.4178  -1.5773

     occupation numbers 
     1.0000   0.0000

     highest occupied, lowest unoccupied level (ev):   -11.4178   -1.5773

!    total energy              =      -2.19756497 Ry
     estimated scf accuracy    <          9.6E-09 Ry

     The total energy is the sum of the following terms:
     one-electron contribution =      -4.47000497 Ry
     hartree contribution      =       2.41395290 Ry
     xc contribution           =      -1.44738516 Ry
     ewald contribution        =       1.30587226 Ry

     convergence has been achieved in  19 iterations

     Forces acting on atoms (cartesian axes, Ry/au):

     atom    1 type  1   force =    -0.28977500    0.00000000    0.00000000
     atom    2 type  1   force =     0.28977500    0.00000000    0.00000000
     The non-local contrib.  to forces
     atom    1 type  1   force =     0.15757039    0.00000000    0.00000000
     atom    2 type  1   force =    -0.15513060    0.00000000    0.00000000
     The ionic contribution  to forces
     atom    1 type  1   force =    -1.41748917    0.00000000   -0.00000000
     atom    2 type  1   force =     1.41748917   -0.00000000   -0.00000000
     The local contribution  to forces
     atom    1 type  1   force =     0.97217733    0.00000000    0.00000000
     atom    2 type  1   force =    -0.97052135    0.00000000    0.00000000
     The core correction contribution to forces
     atom    1 type  1   force =     0.00000000    0.00000000    0.00000000
     atom    2 type  1   force =     0.00000000    0.00000000    0.00000000
     The Hubbard contrib.    to forces
     atom    1 type  1   force =     0.00000000    0.00000000    0.00000000
     atom    2 type  1   force =     0.00000000    0.00000000    0.00000000
     The SCF correction term to forces
     atom    1 type  1   force =     0.00005819   -0.00000000    0.00000000
     atom    2 type  1   force =     0.00002953   -0.00000000    0.00000000

     Total force =     0.409804     Total SCF correction =     0.000065
     Energy error            =      4.9E-02 Ry
     Gradient error          =      2.9E-01 Ry/Bohr

     number of scf cycles    =   2
     number of bfgs steps    =   1

     energy             old  =      -2.2469760629 Ry
     energy             new  =      -2.1975649681 Ry

     CASE: energy            _new > energy            _old

     new trust radius        =       0.0324533191 bohr
     new conv_thr            =       0.0000000100 Ry


ATOMIC_POSITIONS (angstrom)
H             0.0171735569        0.0000000000        0.0000000000
H             0.7628264431        0.0000000000        0.0000000000



     Writing config-only to output data dir ./.save/
     NEW-OLD atomic charge density approx. for the potential

     negative rho (up, down):  3.885E-01 0.000E+00

     total cpu time spent up to now is        9.9 secs

     Self-consistent Calculation

     iteration #  1     ecut=    10.00 Ry     beta= 0.70
     Davidson diagonalization with overlap

---- Real-time Memory Report at c_bands before calling an iterative solver
           134 MiB given to the printing process from OS
             0 MiB allocation reported by mallinfo(arena+hblkhd)
           507 MiB available memory on the node where the printing process lives
------------------
     ethr =  1.00E-06,  avg # of iterations =  6.0

     negative rho (up, down):  3.477E-01 0.000E+00

     total cpu time spent up to now is       10.1 secs

     total energy              =      -2.23838041 Ry
     estimated scf accuracy    <       0.00366776 Ry

     iteration #  2     ecut=    10.00 Ry     beta= 0.70
     Davidson diagonalization with overlap

---- Real-time Memory Report at c_bands before calling an iterative solver
           134 MiB given to the printing process from OS
             0 MiB allocation reported by mallinfo(arena+hblkhd)
           469 MiB available memory on the node where the printing process lives
------------------
     ethr =  1.83E-04,  avg # of iterations =  2.0

     negative rho (up, down):  3.393E-01 0.000E+00

     total cpu time spent up to now is       10.3 secs

     total energy              =      -2.24307089 Ry
     estimated scf accuracy    <       0.00003575 Ry

     iteration #  3     ecut=    10.00 Ry     beta= 0.70
     Davidson diagonalization with overlap

---- Real-time Memory Report at c_bands before calling an iterative solver
           134 MiB given to the printing process from OS
             0 MiB allocation reported by mallinfo(arena+hblkhd)
           466 MiB available memory on the node where the printing process lives
------------------
     ethr =  1.79E-06,  avg # of iterations =  5.0

     negative rho (up, down):  3.379E-01 0.000E+00

     total cpu time spent up to now is       10.6 secs

     total energy              =      -2.24376534 Ry
     estimated scf accuracy    <       0.00000333 Ry

     iteration #  4     ecut=    10.00 Ry     beta= 0.70
     Davidson diagonalization with overlap

---- Real-time Memory Report at c_bands before calling an iterative solver
           134 MiB given to the printing process from OS
             0 MiB allocation reported by mallinfo(arena+hblkhd)
           462 MiB available memory on the node where the printing process lives
------------------
     ethr =  1.66E-07,  avg # of iterations =  3.0

     negative rho (up, down):  3.376E-01 0.000E+00

     total cpu time spent up to now is       10.8 secs

     total energy              =      -2.24401663 Ry
     estimated scf accuracy    <       0.00000685 Ry

     iteration #  5     ecut=    10.00 Ry     beta= 0.70
     Davidson diagonalization with overlap

---- Real-time Memory Report at c_bands before calling an iterative solver
           134 MiB given to the printing process from OS
             0 MiB allocation reported by mallinfo(arena+hblkhd)
           459 MiB available memory on the node where the printing process lives
------------------
     ethr =  1.66E-07,  avg # of iterations =  2.0

     negative rho (up, down):  3.377E-01 0.000E+00

     total cpu time spent up to now is       11.0 secs

     total energy              =      -2.24398080 Ry
     estimated scf accuracy    <       0.00000164 Ry

     iteration #  6     ecut=    10.00 Ry     beta= 0.70
     Davidson diagonalization with overlap

---- Real-time Memory Report at c_bands before calling an iterative solver
           134 MiB given to the printing process from OS
             0 MiB allocation reported by mallinfo(arena+hblkhd)
           455 MiB available memory on the node where the printing process lives
------------------
     ethr =  8.22E-08,  avg # of iterations =  3.0

     negative rho (up, down):  3.376E-01 0.000E+00

     total cpu time spent up to now is       11.2 secs

     total energy              =      -2.24393513 Ry
     estimated scf accuracy    <       0.00000479 Ry

     iteration #  7     ecut=    10.00 Ry     beta= 0.70
     Davidson diagonalization with overlap

---- Real-time Memory Report at c_bands before calling an iterative solver
           134 MiB given to the printing process from OS
             0 MiB allocation reported by mallinfo(arena+hblkhd)
           452 MiB available memory on the node where the printing process lives
------------------
     ethr =  8.22E-08,  avg # of iterations =  3.0

     negative rho (up, down):  3.375E-01 0.000E+00

     total cpu time spent up to now is       11.5 secs

     total energy              =      -2.24398551 Ry
     estimated scf accuracy    <       0.00000010 Ry

     iteration #  8     ecut=    10.00 Ry     beta= 0.70
     Davidson diagonalization with overlap

---- Real-time Memory Report at c_bands before calling an iterative solver
           134 MiB given to the printing process from OS
             0 MiB allocation reported by mallinfo(arena+hblkhd)
           448 MiB available memory on the node where the printing process lives
------------------
     ethr =  5.09E-09,  avg # of iterations =  4.0

     negative rho (up, down):  3.375E-01 0.000E+00

     total cpu time spent up to now is       11.7 secs

     total energy              =      -2.24400382 Ry
     estimated scf accuracy    <       0.00000154 Ry

     iteration #  9     ecut=    10.00 Ry     beta= 0.70
     Davidson diagonalization with overlap

---- Real-time Memory Report at c_bands before calling an iterative solver
           134 MiB given to the printing process from OS
             0 MiB allocation reported by mallinfo(arena+hblkhd)
           445 MiB available memory on the node where the printing process lives
------------------
     ethr =  5.09E-09,  avg # of iterations =  4.0

     negative rho (up, down):  3.375E-01 0.000E+00

     total cpu time spent up to now is       11.9 secs

     total energy              =      -2.24399078 Ry
     estimated scf accuracy    <       0.00000024 Ry

     iteration # 10     ecut=    10.00 Ry     beta= 0.70
     Davidson diagonalization with overlap

---- Real-time Memory Report at c_bands before calling an iterative solver
           134 MiB given to the printing process from OS
             0 MiB allocation reported by mallinfo(arena+hblkhd)
           441 MiB available memory on the node where the printing process lives
------------------
     ethr =  5.09E-09,  avg # of iterations =  3.0

     negative rho (up, down):  3.375E-01 0.000E+00

     total cpu time spent up to now is       12.1 secs

     total energy              =      -2.24399402 Ry
     estimated scf accuracy    <       0.00000018 Ry

     iteration # 11     ecut=    10.00 Ry     beta= 0.70
     Davidson diagonalization with overlap

---- Real-time Memory Report at c_bands before calling an iterative solver
           134 MiB given to the printing process from OS
             0 MiB allocation reported by mallinfo(arena+hblkhd)
           441 MiB available memory on the node where the printing process lives
------------------
     ethr =  5.09E-09,  avg # of iterations =  2.0

     negative rho (up, down):  3.375E-01 0.000E+00

     total cpu time spent up to now is       12.4 secs

     total energy              =      -2.24399691 Ry
     estimated scf accuracy    <       0.00000025 Ry

     iteration # 12     ecut=    10.00 Ry     beta= 0.70
     Davidson diagonalization with overlap

---- Real-time Memory Report at c_bands before calling an iterative solver
           134 MiB given to the printing process from OS
             0 MiB allocation reported by mallinfo(arena+hblkhd)
           440 MiB available memory on the node where the printing process lives
------------------
     ethr =  5.09E-09,  avg # of iterations =  2.0

     negative rho (up, down):  3.376E-01 0.000E+00

     total cpu time spent up to now is       12.6 secs

     total energy              =      -2.24399681 Ry
     estimated scf accuracy    <       0.00000030 Ry

     iteration # 13     ecut=    10.00 Ry     beta= 0.70
     Davidson diagonalization with overlap

---- Real-time Memory Report at c_bands before calling an iterative solver
           134 MiB given to the printing process from OS
             0 MiB allocation reported by mallinfo(arena+hblkhd)
           440 MiB available memory on the node where the printing process lives
------------------
     ethr =  5.09E-09,  avg # of iterations =  3.0

     negative rho (up, down):  3.376E-01 0.000E+00

     total cpu time spent up to now is       12.8 secs

     total energy              =      -2.24400168 Ry
     estimated scf accuracy    <       0.00000020 Ry

     iteration # 14     ecut=    10.00 Ry     beta= 0.70
     Davidson diagonalization with overlap

---- Real-time Memory Report at c_bands before calling an iterative solver
           134 MiB given to the printing process from OS
             0 MiB allocation reported by mallinfo(arena+hblkhd)
           440 MiB available memory on the node where the printing process lives
------------------
     ethr =  5.09E-09,  avg # of iterations =  2.0

     negative rho (up, down):  3.376E-01 0.000E+00

     total cpu time spent up to now is       13.0 secs

     total energy              =      -2.24397537 Ry
     estimated scf accuracy    <       0.00000016 Ry

     iteration # 15     ecut=    10.00 Ry     beta= 0.70
     Davidson diagonalization with overlap

---- Real-time Memory Report at c_bands before calling an iterative solver
           134 MiB given to the printing process from OS
             0 MiB allocation reported by mallinfo(arena+hblkhd)
           440 MiB available memory on the node where the printing process lives
------------------
     ethr =  5.09E-09,  avg # of iterations =  3.0

     negative rho (up, down):  3.373E-01 0.000E+00

     total cpu time spent up to now is       13.2 secs

     total energy              =      -2.24411814 Ry
     estimated scf accuracy    <       0.00000004 Ry

     iteration # 16     ecut=    10.00 Ry     beta= 0.70
     Davidson diagonalization with overlap

---- Real-time Memory Report at c_bands before calling an iterative solver
           134 MiB given to the printing process from OS
             0 MiB allocation reported by mallinfo(arena+hblkhd)
           440 MiB available memory on the node where the printing process lives
------------------
     ethr =  2.15E-09,  avg # of iterations =  4.0

     negative rho (up, down):  3.372E-01 0.000E+00

     total cpu time spent up to now is       13.5 secs

     total energy              =      -2.24418542 Ry
     estimated scf accuracy    <       0.00000083 Ry

     iteration # 17     ecut=    10.00 Ry     beta= 0.70
     Davidson diagonalization with overlap

---- Real-time Memory Report at c_bands before calling an iterative solver
           134 MiB given to the printing process from OS
             0 MiB allocation reported by mallinfo(arena+hblkhd)
           440 MiB available memory on the node where the printing process lives
------------------
     ethr =  2.15E-09,  avg # of iterations =  3.0

     negative rho (up, down):  3.372E-01 0.000E+00

     total cpu time spent up to now is       13.7 secs

     total energy              =      -2.24419038 Ry
     estimated scf accuracy    <       0.00000094 Ry

     iteration # 18     ecut=    10.00 Ry     beta= 0.70
     Davidson diagonalization with overlap

---- Real-time Memory Report at c_bands before calling an iterative solver
           134 MiB given to the printing process from OS
             0 MiB allocation reported by mallinfo(arena+hblkhd)
           440 MiB available memory on the node where the printing process lives
------------------
     ethr =  2.15E-09,  avg # of iterations =  2.0

     negative rho (up, down):  3.377E-01 0.000E+00

     total cpu time spent up to now is       13.9 secs

     total energy              =      -2.24393059 Ry
     estimated scf accuracy    <       0.00000100 Ry

     iteration # 19     ecut=    10.00 Ry     beta= 0.70
     Davidson diagonalization with overlap

---- Real-time Memory Report at c_bands before calling an iterative solver
           134 MiB given to the printing process from OS
             0 MiB allocation reported by mallinfo(arena+hblkhd)
           440 MiB available memory on the node where the printing process lives
------------------
     ethr =  2.15E-09,  avg # of iterations =  4.0

     negative rho (up, down):  3.374E-01 0.000E+00

     total cpu time spent up to now is       14.1 secs

     total energy              =      -2.24409110 Ry
     estimated scf accuracy    <       0.00000695 Ry

     iteration # 20     ecut=    10.00 Ry     beta= 0.70
     Davidson diagonalization with overlap

---- Real-time Memory Report at c_bands before calling an iterative solver
           134 MiB given to the printing process from OS
             0 MiB allocation reported by mallinfo(arena+hblkhd)
           440 MiB available memory on the node where the printing process lives
------------------
     ethr =  2.15E-09,  avg # of iterations =  3.0

     negative rho (up, down):  3.374E-01 0.000E+00

     total cpu time spent up to now is       14.4 secs

     total energy              =      -2.24413964 Ry
     estimated scf accuracy    <       0.00000482 Ry

     iteration # 21     ecut=    10.00 Ry     beta= 0.70
     Davidson diagonalization with overlap

---- Real-time Memory Report at c_bands before calling an iterative solver
           134 MiB given to the printing process from OS
             0 MiB allocation reported by mallinfo(arena+hblkhd)
           440 MiB available memory on the node where the printing process lives
------------------
     ethr =  2.15E-09,  avg # of iterations =  4.0

     negative rho (up, down):  3.374E-01 0.000E+00

     total cpu time spent up to now is       14.6 secs

     total energy              =      -2.24403463 Ry
     estimated scf accuracy    <       0.00000958 Ry

     iteration # 22     ecut=    10.00 Ry     beta= 0.70
     Davidson diagonalization with overlap

---- Real-time Memory Report at c_bands before calling an iterative solver
           134 MiB given to the printing process from OS
             0 MiB allocation reported by mallinfo(arena+hblkhd)
           440 MiB available memory on the node where the printing process lives
------------------
     ethr =  2.15E-09,  avg # of iterations =  5.0

     negative rho (up, down):  3.375E-01 0.000E+00

     total cpu time spent up to now is       14.8 secs

     total energy              =      -2.24399441 Ry
     estimated scf accuracy    <       0.00000148 Ry

     iteration # 23     ecut=    10.00 Ry     beta= 0.70
     Davidson diagonalization with overlap

---- Real-time Memory Report at c_bands before calling an iterative solver
           134 MiB given to the printing process from OS
             0 MiB allocation reported by mallinfo(arena+hblkhd)
           440 MiB available memory on the node where the printing process lives
------------------
     ethr =  2.15E-09,  avg # of iterations =  4.0

     negative rho (up, down):  3.374E-01 0.000E+00

     total cpu time spent up to now is       15.1 secs

     total energy              =      -2.24407409 Ry
     estimated scf accuracy    <       0.00000011 Ry

     iteration # 24     ecut=    10.00 Ry     beta= 0.70
     Davidson diagonalization with overlap

---- Real-time Memory Report at c_bands before calling an iterative solver
           134 MiB given to the printing process from OS
             0 MiB allocation reported by mallinfo(arena+hblkhd)
           440 MiB available memory on the node where the printing process lives
------------------
     ethr =  2.15E-09,  avg # of iterations =  4.0

     negative rho (up, down):  3.375E-01 0.000E+00

     total cpu time spent up to now is       15.3 secs

     total energy              =      -2.24401634 Ry
     estimated scf accuracy    <       0.00000042 Ry

     iteration # 25     ecut=    10.00 Ry     beta= 0.70
     Davidson diagonalization with overlap

---- Real-time Memory Report at c_bands before calling an iterative solver
           134 MiB given to the printing process from OS
             0 MiB allocation reported by mallinfo(arena+hblkhd)
           440 MiB available memory on the node where the printing process lives
------------------
     ethr =  2.15E-09,  avg # of iterations =  4.0

     negative rho (up, down):  3.374E-01 0.000E+00

     total cpu time spent up to now is       15.5 secs

     total energy              =      -2.24409031 Ry
     estimated scf accuracy    <       0.00000012 Ry

     iteration # 26     ecut=    10.00 Ry     beta= 0.70
     Davidson diagonalization with overlap

---- Real-time Memory Report at c_bands before calling an iterative solver
           134 MiB given to the printing process from OS
             0 MiB allocation reported by mallinfo(arena+hblkhd)
           440 MiB available memory on the node where the printing process lives
------------------
     ethr =  2.15E-09,  avg # of iterations =  4.0

     negative rho (up, down):  3.374E-01 0.000E+00

     total cpu time spent up to now is       15.8 secs

     total energy              =      -2.24405215 Ry
     estimated scf accuracy    <       0.00000024 Ry

     iteration # 27     ecut=    10.00 Ry     beta= 0.70
     Davidson diagonalization with overlap

---- Real-time Memory Report at c_bands before calling an iterative solver
           134 MiB given to the printing process from OS
             0 MiB allocation reported by mallinfo(arena+hblkhd)
           440 MiB available memory on the node where the printing process lives
------------------
     ethr =  2.15E-09,  avg # of iterations =  4.0

     negative rho (up, down):  3.374E-01 0.000E+00

     total cpu time spent up to now is       16.0 secs

     total energy              =      -2.24402285 Ry
     estimated scf accuracy    <       0.00000005 Ry

     iteration # 28     ecut=    10.00 Ry     beta= 0.70
     Davidson diagonalization with overlap

---- Real-time Memory Report at c_bands before calling an iterative solver
           134 MiB given to the printing process from OS
             0 MiB allocation reported by mallinfo(arena+hblkhd)
           440 MiB available memory on the node where the printing process lives
------------------
     ethr =  2.15E-09,  avg # of iterations =  4.0

     negative rho (up, down):  3.375E-01 0.000E+00

     total cpu time spent up to now is       16.2 secs

     total energy              =      -2.24399880 Ry
     estimated scf accuracy    <       0.00000181 Ry

     iteration # 29     ecut=    10.00 Ry     beta= 0.70
     Davidson diagonalization with overlap

---- Real-time Memory Report at c_bands before calling an iterative solver
           134 MiB given to the printing process from OS
             0 MiB allocation reported by mallinfo(arena+hblkhd)
           440 MiB available memory on the node where the printing process lives
------------------
     ethr =  2.15E-09,  avg # of iterations =  4.0

     negative rho (up, down):  3.375E-01 0.000E+00

     total cpu time spent up to now is       16.5 secs

     total energy              =      -2.24399653 Ry
     estimated scf accuracy    <       0.00000014 Ry

     iteration # 30     ecut=    10.00 Ry     beta= 0.70
     Davidson diagonalization with overlap

---- Real-time Memory Report at c_bands before calling an iterative solver
           134 MiB given to the printing process from OS
             0 MiB allocation reported by mallinfo(arena+hblkhd)
           440 MiB available memory on the node where the printing process lives
------------------
     ethr =  2.15E-09,  avg # of iterations =  3.0

     negative rho (up, down):  3.376E-01 0.000E+00

     total cpu time spent up to now is       16.7 secs

     total energy              =      -2.24399035 Ry
     estimated scf accuracy    <       0.00000027 Ry

     iteration # 31     ecut=    10.00 Ry     beta= 0.70
     Davidson diagonalization with overlap

---- Real-time Memory Report at c_bands before calling an iterative solver
           134 MiB given to the printing process from OS
             0 MiB allocation reported by mallinfo(arena+hblkhd)
           440 MiB available memory on the node where the printing process lives
------------------
     ethr =  2.15E-09,  avg # of iterations =  3.0

     negative rho (up, down):  3.376E-01 0.000E+00

     total cpu time spent up to now is       16.9 secs

     total energy              =      -2.24400018 Ry
     estimated scf accuracy    <       0.00000035 Ry

     iteration # 32     ecut=    10.00 Ry     beta= 0.70
     Davidson diagonalization with overlap

---- Real-time Memory Report at c_bands before calling an iterative solver
           134 MiB given to the printing process from OS
             0 MiB allocation reported by mallinfo(arena+hblkhd)
           440 MiB available memory on the node where the printing process lives
------------------
     ethr =  2.15E-09,  avg # of iterations =  3.0

     negative rho (up, down):  3.375E-01 0.000E+00

     total cpu time spent up to now is       17.1 secs

     total energy              =      -2.24401427 Ry
     estimated scf accuracy    <       0.00000016 Ry

     iteration # 33     ecut=    10.00 Ry     beta= 0.70
     Davidson diagonalization with overlap

---- Real-time Memory Report at c_bands before calling an iterative solver
           134 MiB given to the printing process from OS
             0 MiB allocation reported by mallinfo(arena+hblkhd)
           440 MiB available memory on the node where the printing process lives
------------------
     ethr =  2.15E-09,  avg # of iterations =  2.0

     negative rho (up, down):  3.375E-01 0.000E+00

     total cpu time spent up to now is       17.3 secs

     total energy              =      -2.24401322 Ry
     estimated scf accuracy    <       0.00000012 Ry

     iteration # 34     ecut=    10.00 Ry     beta= 0.70
     Davidson diagonalization with overlap

---- Real-time Memory Report at c_bands before calling an iterative solver
           134 MiB given to the printing process from OS
             0 MiB allocation reported by mallinfo(arena+hblkhd)
           440 MiB available memory on the node where the printing process lives
------------------
     ethr =  2.15E-09,  avg # of iterations =  2.0

     negative rho (up, down):  3.375E-01 0.000E+00

     total cpu time spent up to now is       17.6 secs

     total energy              =      -2.24401589 Ry
     estimated scf accuracy    <       0.00000011 Ry

     iteration # 35     ecut=    10.00 Ry     beta= 0.70
     Davidson diagonalization with overlap

---- Real-time Memory Report at c_bands before calling an iterative solver
           134 MiB given to the printing process from OS
             0 MiB allocation reported by mallinfo(arena+hblkhd)
           440 MiB available memory on the node where the printing process lives
------------------
     ethr =  2.15E-09,  avg # of iterations =  2.0

     negative rho (up, down):  3.375E-01 0.000E+00

     total cpu time spent up to now is       17.8 secs

     total energy              =      -2.24402323 Ry
     estimated scf accuracy    <       0.00000012 Ry

     iteration # 36     ecut=    10.00 Ry     beta= 0.70
     Davidson diagonalization with overlap

---- Real-time Memory Report at c_bands before calling an iterative solver
           134 MiB given to the printing process from OS
             0 MiB allocation reported by mallinfo(arena+hblkhd)
           440 MiB available memory on the node where the printing process lives
------------------
     ethr =  2.15E-09,  avg # of iterations =  3.0

     negative rho (up, down):  3.375E-01 0.000E+00

     total cpu time spent up to now is       18.0 secs

     total energy              =      -2.24400649 Ry
     estimated scf accuracy    <       0.00000029 Ry

     iteration # 37     ecut=    10.00 Ry     beta= 0.70
     Davidson diagonalization with overlap

---- Real-time Memory Report at c_bands before calling an iterative solver
           134 MiB given to the printing process from OS
             0 MiB allocation reported by mallinfo(arena+hblkhd)
           440 MiB available memory on the node where the printing process lives
------------------
     ethr =  2.15E-09,  avg # of iterations =  4.0

     negative rho (up, down):  3.375E-01 0.000E+00

     total cpu time spent up to now is       18.2 secs

     total energy              =      -2.24413450 Ry
     estimated scf accuracy    <       0.00000011 Ry

     iteration # 38     ecut=    10.00 Ry     beta= 0.70
     Davidson diagonalization with overlap

---- Real-time Memory Report at c_bands before calling an iterative solver
           134 MiB given to the printing process from OS
             0 MiB allocation reported by mallinfo(arena+hblkhd)
           440 MiB available memory on the node where the printing process lives
------------------
     ethr =  2.15E-09,  avg # of iterations =  4.0

     negative rho (up, down):  3.374E-01 0.000E+00

     total cpu time spent up to now is       18.5 secs

     total energy              =      -2.24414604 Ry
     estimated scf accuracy    <       0.00000024 Ry

     iteration # 39     ecut=    10.00 Ry     beta= 0.70
     Davidson diagonalization with overlap

---- Real-time Memory Report at c_bands before calling an iterative solver
           134 MiB given to the printing process from OS
             0 MiB allocation reported by mallinfo(arena+hblkhd)
           440 MiB available memory on the node where the printing process lives
------------------
     ethr =  2.15E-09,  avg # of iterations =  4.0

     negative rho (up, down):  3.375E-01 0.000E+00

     total cpu time spent up to now is       18.7 secs

     total energy              =      -2.24402371 Ry
     estimated scf accuracy    <       0.00000120 Ry

     iteration # 40     ecut=    10.00 Ry     beta= 0.70
     Davidson diagonalization with overlap

---- Real-time Memory Report at c_bands before calling an iterative solver
           134 MiB given to the printing process from OS
             0 MiB allocation reported by mallinfo(arena+hblkhd)
           440 MiB available memory on the node where the printing process lives
------------------
     ethr =  2.15E-09,  avg # of iterations =  4.0

     negative rho (up, down):  3.375E-01 0.000E+00

     total cpu time spent up to now is       18.9 secs

     total energy              =      -2.24403851 Ry
     estimated scf accuracy    <       0.00000015 Ry

     iteration # 41     ecut=    10.00 Ry     beta= 0.70
     Davidson diagonalization with overlap

---- Real-time Memory Report at c_bands before calling an iterative solver
           134 MiB given to the printing process from OS
             0 MiB allocation reported by mallinfo(arena+hblkhd)
           440 MiB available memory on the node where the printing process lives
------------------
     ethr =  2.15E-09,  avg # of iterations =  3.0

     negative rho (up, down):  3.375E-01 0.000E+00

     total cpu time spent up to now is       19.2 secs

     total energy              =      -2.24403795 Ry
     estimated scf accuracy    <       0.00000008 Ry

     iteration # 42     ecut=    10.00 Ry     beta= 0.70
     Davidson diagonalization with overlap

---- Real-time Memory Report at c_bands before calling an iterative solver
           134 MiB given to the printing process from OS
             0 MiB allocation reported by mallinfo(arena+hblkhd)
           440 MiB available memory on the node where the printing process lives
------------------
     ethr =  2.15E-09,  avg # of iterations =  3.0

     negative rho (up, down):  3.375E-01 0.000E+00

     total cpu time spent up to now is       19.4 secs

     total energy              =      -2.24402712 Ry
     estimated scf accuracy    <       0.00000011 Ry

     iteration # 43     ecut=    10.00 Ry     beta= 0.70
     Davidson diagonalization with overlap

---- Real-time Memory Report at c_bands before calling an iterative solver
           134 MiB given to the printing process from OS
             0 MiB allocation reported by mallinfo(arena+hblkhd)
           440 MiB available memory on the node where the printing process lives
------------------
     ethr =  2.15E-09,  avg # of iterations =  3.0

     negative rho (up, down):  3.375E-01 0.000E+00

     total cpu time spent up to now is       19.6 secs

     total energy              =      -2.24402053 Ry
     estimated scf accuracy    <       0.00000012 Ry

     iteration # 44     ecut=    10.00 Ry     beta= 0.70
     Davidson diagonalization with overlap

---- Real-time Memory Report at c_bands before calling an iterative solver
           134 MiB given to the printing process from OS
             0 MiB allocation reported by mallinfo(arena+hblkhd)
           440 MiB available memory on the node where the printing process lives
------------------
     ethr =  2.15E-09,  avg # of iterations =  3.0

     negative rho (up, down):  3.375E-01 0.000E+00

     total cpu time spent up to now is       19.8 secs

     total energy              =      -2.24402267 Ry
     estimated scf accuracy    <       0.00000006 Ry

     iteration # 45     ecut=    10.00 Ry     beta= 0.70
     Davidson diagonalization with overlap

---- Real-time Memory Report at c_bands before calling an iterative solver
           134 MiB given to the printing process from OS
             0 MiB allocation reported by mallinfo(arena+hblkhd)
           440 MiB available memory on the node where the printing process lives
------------------
     ethr =  2.15E-09,  avg # of iterations =  3.0

     negative rho (up, down):  3.376E-01 0.000E+00

     total cpu time spent up to now is       20.0 secs

     total energy              =      -2.24400933 Ry
     estimated scf accuracy    <       0.00000008 Ry

     iteration # 46     ecut=    10.00 Ry     beta= 0.70
     Davidson diagonalization with overlap

---- Real-time Memory Report at c_bands before calling an iterative solver
           134 MiB given to the printing process from OS
             0 MiB allocation reported by mallinfo(arena+hblkhd)
           440 MiB available memory on the node where the printing process lives
------------------
     ethr =  2.15E-09,  avg # of iterations =  3.0

     negative rho (up, down):  3.375E-01 0.000E+00

     total cpu time spent up to now is       20.3 secs

     total energy              =      -2.24399309 Ry
     estimated scf accuracy    <       0.00000010 Ry

     iteration # 47     ecut=    10.00 Ry     beta= 0.70
     Davidson diagonalization with overlap

---- Real-time Memory Report at c_bands before calling an iterative solver
           134 MiB given to the printing process from OS
             0 MiB allocation reported by mallinfo(arena+hblkhd)
           440 MiB available memory on the node where the printing process lives
------------------
     ethr =  2.15E-09,  avg # of iterations =  4.0

     negative rho (up, down):  3.376E-01 0.000E+00

     total cpu time spent up to now is       20.5 secs

     total energy              =      -2.24398427 Ry
     estimated scf accuracy    <       0.00000129 Ry

     iteration # 48     ecut=    10.00 Ry     beta= 0.70
     Davidson diagonalization with overlap

---- Real-time Memory Report at c_bands before calling an iterative solver
           134 MiB given to the printing process from OS
             0 MiB allocation reported by mallinfo(arena+hblkhd)
           440 MiB available memory on the node where the printing process lives
------------------
     ethr =  2.15E-09,  avg # of iterations =  4.0

     negative rho (up, down):  3.375E-01 0.000E+00

     total cpu time spent up to now is       20.7 secs

     total energy              =      -2.24399654 Ry
     estimated scf accuracy    <       0.00000058 Ry

     iteration # 49     ecut=    10.00 Ry     beta= 0.70
     Davidson diagonalization with overlap

---- Real-time Memory Report at c_bands before calling an iterative solver
           134 MiB given to the printing process from OS
             0 MiB allocation reported by mallinfo(arena+hblkhd)
           440 MiB available memory on the node where the printing process lives
------------------
     ethr =  2.15E-09,  avg # of iterations =  4.0

     negative rho (up, down):  3.375E-01 0.000E+00

     total cpu time spent up to now is       21.0 secs

     total energy              =      -2.24402454 Ry
     estimated scf accuracy    <       0.00000093 Ry

     iteration # 50     ecut=    10.00 Ry     beta= 0.70
     Davidson diagonalization with overlap

---- Real-time Memory Report at c_bands before calling an iterative solver
           134 MiB given to the printing process from OS
             0 MiB allocation reported by mallinfo(arena+hblkhd)
           440 MiB available memory on the node where the printing process lives
------------------
     ethr =  2.15E-09,  avg # of iterations =  4.0

     negative rho (up, down):  3.375E-01 0.000E+00

     total cpu time spent up to now is       21.2 secs

     total energy              =      -2.24403583 Ry
     estimated scf accuracy    <       0.00000025 Ry

     iteration # 51     ecut=    10.00 Ry     beta= 0.70
     Davidson diagonalization with overlap

---- Real-time Memory Report at c_bands before calling an iterative solver
           134 MiB given to the printing process from OS
             0 MiB allocation reported by mallinfo(arena+hblkhd)
           440 MiB available memory on the node where the printing process lives
------------------
     ethr =  2.15E-09,  avg # of iterations =  4.0

     negative rho (up, down):  3.376E-01 0.000E+00

     total cpu time spent up to now is       21.4 secs

     total energy              =      -2.24395056 Ry
     estimated scf accuracy    <       0.00000047 Ry

     iteration # 52     ecut=    10.00 Ry     beta= 0.70
     Davidson diagonalization with overlap

---- Real-time Memory Report at c_bands before calling an iterative solver
           134 MiB given to the printing process from OS
             0 MiB allocation reported by mallinfo(arena+hblkhd)
           440 MiB available memory on the node where the printing process lives
------------------
     ethr =  2.15E-09,  avg # of iterations =  4.0

     negative rho (up, down):  3.375E-01 0.000E+00

     total cpu time spent up to now is       21.7 secs

     total energy              =      -2.24400918 Ry
     estimated scf accuracy    <       0.00000202 Ry

     iteration # 53     ecut=    10.00 Ry     beta= 0.70
     Davidson diagonalization with overlap

---- Real-time Memory Report at c_bands before calling an iterative solver
           134 MiB given to the printing process from OS
             0 MiB allocation reported by mallinfo(arena+hblkhd)
           440 MiB available memory on the node where the printing process lives
------------------
     ethr =  2.15E-09,  avg # of iterations =  4.0

     negative rho (up, down):  3.376E-01 0.000E+00

     total cpu time spent up to now is       21.9 secs

     total energy              =      -2.24399125 Ry
     estimated scf accuracy    <       0.00000044 Ry

     iteration # 54     ecut=    10.00 Ry     beta= 0.70
     Davidson diagonalization with overlap

---- Real-time Memory Report at c_bands before calling an iterative solver
           134 MiB given to the printing process from OS
             0 MiB allocation reported by mallinfo(arena+hblkhd)
           440 MiB available memory on the node where the printing process lives
------------------
     ethr =  2.15E-09,  avg # of iterations =  3.0

     negative rho (up, down):  3.374E-01 0.000E+00

     total cpu time spent up to now is       22.1 secs

     total energy              =      -2.24404940 Ry
     estimated scf accuracy    <       0.00000034 Ry

     iteration # 55     ecut=    10.00 Ry     beta= 0.70
     Davidson diagonalization with overlap

---- Real-time Memory Report at c_bands before calling an iterative solver
           134 MiB given to the printing process from OS
             0 MiB allocation reported by mallinfo(arena+hblkhd)
           440 MiB available memory on the node where the printing process lives
[...]
------------------
     ethr =  2.15E-09,  avg # of iterations =  3.0

     negative rho (up, down):  3.373E-01 0.000E+00

     total cpu time spent up to now is       27.1 secs

     total energy              =      -2.24412273 Ry
     estimated scf accuracy    <       0.00000014 Ry

     iteration # 77     ecut=    10.00 Ry     beta= 0.70
     Davidson diagonalization with overlap

---- Real-time Memory Report at c_bands before calling an iterative solver
           134 MiB given to the printing process from OS
             0 MiB allocation reported by mallinfo(arena+hblkhd)
           440 MiB available memory on the node where the printing process lives
------------------
     ethr =  2.15E-09,  avg # of iterations =  3.0

     negative rho (up, down):  3.372E-01 0.000E+00

     total cpu time spent up to now is       27.3 secs

     total energy              =      -2.24416416 Ry
     estimated scf accuracy    <       0.00000006 Ry

     iteration # 78     ecut=    10.00 Ry     beta= 0.70
     Davidson diagonalization with overlap

---- Real-time Memory Report at c_bands before calling an iterative solver
           134 MiB given to the printing process from OS
             0 MiB allocation reported by mallinfo(arena+hblkhd)
           440 MiB available memory on the node where the printing process lives
------------------
     ethr =  2.15E-09,  avg # of iterations =  3.0

     negative rho (up, down):  3.373E-01 0.000E+00

     total cpu time spent up to now is       27.5 secs

     total energy              =      -2.24408498 Ry
     estimated scf accuracy    <       0.00000010 Ry

     iteration # 79     ecut=    10.00 Ry     beta= 0.70
     Davidson diagonalization with overlap

---- Real-time Memory Report at c_bands before calling an iterative solver
           134 MiB given to the printing process from OS
             0 MiB allocation reported by mallinfo(arena+hblkhd)
           440 MiB available memory on the node where the printing process lives
------------------
     ethr =  2.15E-09,  avg # of iterations =  3.0

     negative rho (up, down):  3.374E-01 0.000E+00

     total cpu time spent up to now is       27.8 secs

     total energy              =      -2.24406662 Ry
     estimated scf accuracy    <       0.00000008 Ry

     iteration # 80     ecut=    10.00 Ry     beta= 0.70
     Davidson diagonalization with overlap

---- Real-time Memory Report at c_bands before calling an iterative solver
           134 MiB given to the printing process from OS
             0 MiB allocation reported by mallinfo(arena+hblkhd)
           440 MiB available memory on the node where the printing process lives
------------------
     ethr =  2.15E-09,  avg # of iterations =  4.0

     negative rho (up, down):  3.375E-01 0.000E+00

     total cpu time spent up to now is       28.0 secs

     total energy              =      -2.24401334 Ry
     estimated scf accuracy    <       0.00000044 Ry

     iteration # 81     ecut=    10.00 Ry     beta= 0.70
     Davidson diagonalization with overlap

---- Real-time Memory Report at c_bands before calling an iterative solver
           134 MiB given to the printing process from OS
             0 MiB allocation reported by mallinfo(arena+hblkhd)
           440 MiB available memory on the node where the printing process lives
------------------
     ethr =  2.15E-09,  avg # of iterations =  4.0

     negative rho (up, down):  3.377E-01 0.000E+00

     total cpu time spent up to now is       28.2 secs

     total energy              =      -2.24393479 Ry
     estimated scf accuracy    <       0.00000057 Ry

     iteration # 82     ecut=    10.00 Ry     beta= 0.70
     Davidson diagonalization with overlap

---- Real-time Memory Report at c_bands before calling an iterative solver
           134 MiB given to the printing process from OS
             0 MiB allocation reported by mallinfo(arena+hblkhd)
           440 MiB available memory on the node where the printing process lives
------------------
     ethr =  2.15E-09,  avg # of iterations =  3.0

     negative rho (up, down):  3.373E-01 0.000E+00

     total cpu time spent up to now is       28.5 secs

     total energy              =      -2.24408070 Ry
     estimated scf accuracy    <       0.00000183 Ry

     iteration # 83     ecut=    10.00 Ry     beta= 0.70
     Davidson diagonalization with overlap

---- Real-time Memory Report at c_bands before calling an iterative solver
           134 MiB given to the printing process from OS
             0 MiB allocation reported by mallinfo(arena+hblkhd)
           440 MiB available memory on the node where the printing process lives
------------------
     ethr =  2.15E-09,  avg # of iterations =  4.0

     negative rho (up, down):  3.373E-01 0.000E+00

     total cpu time spent up to now is       28.7 secs

     total energy              =      -2.24411486 Ry
     estimated scf accuracy    <       0.00000153 Ry

     iteration # 84     ecut=    10.00 Ry     beta= 0.70
     Davidson diagonalization with overlap

---- Real-time Memory Report at c_bands before calling an iterative solver
           134 MiB given to the printing process from OS
             0 MiB allocation reported by mallinfo(arena+hblkhd)
           440 MiB available memory on the node where the printing process lives
------------------
     ethr =  2.15E-09,  avg # of iterations =  4.0

     negative rho (up, down):  3.374E-01 0.000E+00

     total cpu time spent up to now is       28.9 secs

     total energy              =      -2.24404630 Ry
     estimated scf accuracy    <       0.00000297 Ry

     iteration # 85     ecut=    10.00 Ry     beta= 0.70
     Davidson diagonalization with overlap

---- Real-time Memory Report at c_bands before calling an iterative solver
           134 MiB given to the printing process from OS
             0 MiB allocation reported by mallinfo(arena+hblkhd)
           440 MiB available memory on the node where the printing process lives
------------------
     ethr =  2.15E-09,  avg # of iterations =  4.0

     negative rho (up, down):  3.375E-01 0.000E+00

     total cpu time spent up to now is       29.1 secs

     total energy              =      -2.24403436 Ry
     estimated scf accuracy    <       0.00000045 Ry

     iteration # 86     ecut=    10.00 Ry     beta= 0.70
     Davidson diagonalization with overlap

---- Real-time Memory Report at c_bands before calling an iterative solver
           134 MiB given to the printing process from OS
             0 MiB allocation reported by mallinfo(arena+hblkhd)
           440 MiB available memory on the node where the printing process lives
------------------
     ethr =  2.15E-09,  avg # of iterations =  3.0

     negative rho (up, down):  3.375E-01 0.000E+00

     total cpu time spent up to now is       29.4 secs

     total energy              =      -2.24403377 Ry
     estimated scf accuracy    <       0.00000028 Ry

     iteration # 87     ecut=    10.00 Ry     beta= 0.70
     Davidson diagonalization with overlap

---- Real-time Memory Report at c_bands before calling an iterative solver
           134 MiB given to the printing process from OS
             0 MiB allocation reported by mallinfo(arena+hblkhd)
           440 MiB available memory on the node where the printing process lives
------------------
     ethr =  2.15E-09,  avg # of iterations =  2.0

     negative rho (up, down):  3.376E-01 0.000E+00

     total cpu time spent up to now is       29.6 secs

     total energy              =      -2.24398992 Ry
     estimated scf accuracy    <       0.00000028 Ry

     iteration # 88     ecut=    10.00 Ry     beta= 0.70
     Davidson diagonalization with overlap

---- Real-time Memory Report at c_bands before calling an iterative solver
           134 MiB given to the printing process from OS
             0 MiB allocation reported by mallinfo(arena+hblkhd)
           440 MiB available memory on the node where the printing process lives
------------------
     ethr =  2.15E-09,  avg # of iterations =  3.0

     negative rho (up, down):  3.375E-01 0.000E+00

     total cpu time spent up to now is       29.8 secs

     total energy              =      -2.24400915 Ry
     estimated scf accuracy    <       0.00000072 Ry

     iteration # 89     ecut=    10.00 Ry     beta= 0.70
     Davidson diagonalization with overlap

---- Real-time Memory Report at c_bands before calling an iterative solver
           134 MiB given to the printing process from OS
             0 MiB allocation reported by mallinfo(arena+hblkhd)
           440 MiB available memory on the node where the printing process lives
------------------
     ethr =  2.15E-09,  avg # of iterations =  2.0

     negative rho (up, down):  3.374E-01 0.000E+00

     total cpu time spent up to now is       30.0 secs

     total energy              =      -2.24405138 Ry
     estimated scf accuracy    <       0.00000059 Ry

     iteration # 90     ecut=    10.00 Ry     beta= 0.70
     Davidson diagonalization with overlap

---- Real-time Memory Report at c_bands before calling an iterative solver
           134 MiB given to the printing process from OS
             0 MiB allocation reported by mallinfo(arena+hblkhd)
           440 MiB available memory on the node where the printing process lives
------------------
     ethr =  2.15E-09,  avg # of iterations =  3.0

     negative rho (up, down):  3.374E-01 0.000E+00

     total cpu time spent up to now is       30.2 secs

     total energy              =      -2.24405676 Ry
     estimated scf accuracy    <       0.00000036 Ry

     iteration # 91     ecut=    10.00 Ry     beta= 0.70
     Davidson diagonalization with overlap

---- Real-time Memory Report at c_bands before calling an iterative solver
           134 MiB given to the printing process from OS
             0 MiB allocation reported by mallinfo(arena+hblkhd)
           440 MiB available memory on the node where the printing process lives
------------------
     ethr =  2.15E-09,  avg # of iterations =  3.0

     negative rho (up, down):  3.374E-01 0.000E+00

     total cpu time spent up to now is       30.5 secs

     total energy              =      -2.24405638 Ry
     estimated scf accuracy    <       0.00000050 Ry

     iteration # 92     ecut=    10.00 Ry     beta= 0.70
     Davidson diagonalization with overlap

---- Real-time Memory Report at c_bands before calling an iterative solver
           134 MiB given to the printing process from OS
             0 MiB allocation reported by mallinfo(arena+hblkhd)
           440 MiB available memory on the node where the printing process lives
------------------
     ethr =  2.15E-09,  avg # of iterations =  2.0

     negative rho (up, down):  3.374E-01 0.000E+00

     total cpu time spent up to now is       30.7 secs

     total energy              =      -2.24405147 Ry
     estimated scf accuracy    <       0.00000046 Ry

     iteration # 93     ecut=    10.00 Ry     beta= 0.70
     Davidson diagonalization with overlap

---- Real-time Memory Report at c_bands before calling an iterative solver
           134 MiB given to the printing process from OS
             0 MiB allocation reported by mallinfo(arena+hblkhd)
           440 MiB available memory on the node where the printing process lives
------------------
     ethr =  2.15E-09,  avg # of iterations =  2.0

     negative rho (up, down):  3.374E-01 0.000E+00

     total cpu time spent up to now is       30.9 secs

     total energy              =      -2.24407171 Ry
     estimated scf accuracy    <       0.00000038 Ry

     iteration # 94     ecut=    10.00 Ry     beta= 0.70
     Davidson diagonalization with overlap

---- Real-time Memory Report at c_bands before calling an iterative solver
           134 MiB given to the printing process from OS
             0 MiB allocation reported by mallinfo(arena+hblkhd)
           440 MiB available memory on the node where the printing process lives
------------------
     ethr =  2.15E-09,  avg # of iterations =  4.0

     negative rho (up, down):  3.374E-01 0.000E+00

     total cpu time spent up to now is       31.1 secs

     total energy              =      -2.24406624 Ry
     estimated scf accuracy    <       0.00000015 Ry

     iteration # 95     ecut=    10.00 Ry     beta= 0.70
     Davidson diagonalization with overlap

---- Real-time Memory Report at c_bands before calling an iterative solver
           134 MiB given to the printing process from OS
             0 MiB allocation reported by mallinfo(arena+hblkhd)
           440 MiB available memory on the node where the printing process lives
------------------
     ethr =  2.15E-09,  avg # of iterations =  3.0

     negative rho (up, down):  3.375E-01 0.000E+00

     total cpu time spent up to now is       31.3 secs

     total energy              =      -2.24402952 Ry
     estimated scf accuracy    <       0.00000010 Ry

     iteration # 96     ecut=    10.00 Ry     beta= 0.70
     Davidson diagonalization with overlap

---- Real-time Memory Report at c_bands before calling an iterative solver
           134 MiB given to the printing process from OS
             0 MiB allocation reported by mallinfo(arena+hblkhd)
           440 MiB available memory on the node where the printing process lives
------------------
     ethr =  2.15E-09,  avg # of iterations =  4.0

     negative rho (up, down):  3.375E-01 0.000E+00

     total cpu time spent up to now is       31.6 secs

     total energy              =      -2.24400902 Ry
     estimated scf accuracy    <       0.00000029 Ry

     iteration # 97     ecut=    10.00 Ry     beta= 0.70
     Davidson diagonalization with overlap

---- Real-time Memory Report at c_bands before calling an iterative solver
           134 MiB given to the printing process from OS
             0 MiB allocation reported by mallinfo(arena+hblkhd)
           440 MiB available memory on the node where the printing process lives
------------------
     ethr =  2.15E-09,  avg # of iterations =  3.0

     negative rho (up, down):  3.375E-01 0.000E+00

     total cpu time spent up to now is       31.8 secs

     total energy              =      -2.24404076 Ry
     estimated scf accuracy    <       0.00000045 Ry

     iteration # 98     ecut=    10.00 Ry     beta= 0.70
     Davidson diagonalization with overlap

---- Real-time Memory Report at c_bands before calling an iterative solver
           134 MiB given to the printing process from OS
             0 MiB allocation reported by mallinfo(arena+hblkhd)
           440 MiB available memory on the node where the printing process lives
------------------
     ethr =  2.15E-09,  avg # of iterations =  4.0

     negative rho (up, down):  3.375E-01 0.000E+00

     total cpu time spent up to now is       32.1 secs

     total energy              =      -2.24403182 Ry
     estimated scf accuracy    <       0.00000090 Ry

     iteration # 99     ecut=    10.00 Ry     beta= 0.70
     Davidson diagonalization with overlap

---- Real-time Memory Report at c_bands before calling an iterative solver
           134 MiB given to the printing process from OS
             0 MiB allocation reported by mallinfo(arena+hblkhd)
           440 MiB available memory on the node where the printing process lives
------------------
     ethr =  2.15E-09,  avg # of iterations =  4.0

     negative rho (up, down):  3.375E-01 0.000E+00

     total cpu time spent up to now is       32.3 secs

     total energy              =      -2.24403389 Ry
     estimated scf accuracy    <       0.00000034 Ry

     iteration #100     ecut=    10.00 Ry     beta= 0.70
     Davidson diagonalization with overlap

---- Real-time Memory Report at c_bands before calling an iterative solver
           134 MiB given to the printing process from OS
             0 MiB allocation reported by mallinfo(arena+hblkhd)
           440 MiB available memory on the node where the printing process lives
------------------
     ethr =  2.15E-09,  avg # of iterations =  4.0

     negative rho (up, down):  3.374E-01 0.000E+00

     total cpu time spent up to now is       32.5 secs

     total energy              =      -2.24410858 Ry
     estimated scf accuracy    <       0.00000001 Ry

     End of self-consistent calculation

     convergence NOT achieved after 100 iterations: stopping

     Writing config to output data dir ./.save/
     Message from routine punch:
     wavefunctions written to file

     init_run     :      0.22s CPU      0.23s WALL (       1 calls)
     electrons    :     31.72s CPU     31.86s WALL (       3 calls)
     update_pot   :      0.29s CPU      0.30s WALL (       2 calls)
     forces       :      0.09s CPU      0.10s WALL (       2 calls)

     Called by init_run:
     wfcinit      :      0.02s CPU      0.02s WALL (       1 calls)
     wfcinit:atom :      0.00s CPU      0.00s WALL (       1 calls)
     wfcinit:wfcr :      0.01s CPU      0.01s WALL (       1 calls)
     potinit      :      0.13s CPU      0.14s WALL (       1 calls)
     hinit0       :      0.01s CPU      0.01s WALL (       1 calls)

     Called by electrons:
     c_bands      :      6.21s CPU      6.23s WALL (     141 calls)
     sum_band     :      3.49s CPU      3.50s WALL (     141 calls)
     v_of_rho     :     17.43s CPU     17.51s WALL (     144 calls)
     v_h          :      0.94s CPU      0.95s WALL (     144 calls)
     v_xc         :     16.49s CPU     16.56s WALL (     144 calls)
     newd         :      1.15s CPU      1.15s WALL (     144 calls)
     mix_rho      :      3.46s CPU      3.49s WALL (     141 calls)

     Called by c_bands:
     init_us_2    :      0.11s CPU      0.11s WALL (     283 calls)
     init_us_2:cp :      0.11s CPU      0.11s WALL (     283 calls)
     cegterg      :      6.13s CPU      6.15s WALL (     141 calls)

     Called by sum_band:
     sum_band:wei :      0.00s CPU      0.00s WALL (     141 calls)
     sum_band:loo :      0.95s CPU      0.95s WALL (     141 calls)
     sum_band:buf :      0.00s CPU      0.00s WALL (     141 calls)
     sum_band:ini :      0.06s CPU      0.06s WALL (     141 calls)
     sum_band:cal :      0.01s CPU      0.01s WALL (     141 calls)
     sum_band:bec :      0.00s CPU      0.00s WALL (     141 calls)
     addusdens    :      0.32s CPU      0.32s WALL (     141 calls)
     addusd:skk   :      0.10s CPU      0.10s WALL (     141 calls)
     addusd:dgemm :      0.07s CPU      0.07s WALL (     141 calls)
     addusd:qvan2 :      0.08s CPU      0.08s WALL (     141 calls)

     Called by *egterg:
     cdiaghg      :      0.01s CPU      0.01s WALL (     598 calls)
     cegterg:over :      0.08s CPU      0.08s WALL (     459 calls)
     cegterg:upda :      0.06s CPU      0.06s WALL (     459 calls)
     cegterg:last :      0.12s CPU      0.13s WALL (     354 calls)
     h_psi        :      5.72s CPU      5.74s WALL (     601 calls)
     s_psi        :      0.03s CPU      0.03s WALL (     601 calls)
     g_psi        :      0.03s CPU      0.03s WALL (     459 calls)

     Called by h_psi:
     h_psi:calbec :      0.04s CPU      0.04s WALL (     601 calls)
     vloc_psi     :      5.62s CPU      5.63s WALL (     601 calls)
     add_vuspsi   :      0.04s CPU      0.04s WALL (     601 calls)

     General routines
     calbec       :      0.06s CPU      0.06s WALL (     750 calls)
     fft          :      8.17s CPU      8.19s WALL (    1590 calls)
     ffts         :      0.72s CPU      0.72s WALL (     141 calls)
     fftw         :      5.88s CPU      5.90s WALL (    2106 calls)
     davcio       :      0.01s CPU      0.01s WALL (      19 calls)


     PWSCF        :     32.38s CPU     32.56s WALL


   This run was terminated on:   2:57:38  28Feb2022            

=------------------------------------------------------------------------------=
   JOB DONE.
=------------------------------------------------------------------------------=
