
     Program PWSCF v.7.0 starts on 28Feb2022 at  3:35:54 

     This program is part of the open-source Quantum ESPRESSO suite
     for quantum simulation of materials; please cite
         "P. Giannozzi et al., J. Phys.:Condens. Matter 21 395502 (2009);
         "P. Giannozzi et al., J. Phys.:Condens. Matter 29 465901 (2017);
         "P. Giannozzi et al., J. Chem. Phys. 152 154105 (2020);
          URL http://www.quantum-espresso.org", 
     in publications or presentations arising from this work. More details at
     http://www.quantum-espresso.org/quote

     Serial version
     546 MiB available memory on the printing compute node when the environment starts

     Waiting for input...
     Reading input from standard input

     Current dimensions of program PWSCF are:
     Max number of different atomic species (ntypx) = 10
     Max number of k-points (npk) =  40000
     Max angular momentum in pseudopotentials (lmaxx) =  4

     File ./.update deleted, as requested

     File ./.bfgs deleted, as requested

    ============================================================
    |  pseudopotential report for atomic species:  1           |
    |        pseudo potential version   7   3   2              |
    ------------------------------------------------------------
    |  hydrogen            PBE                  exchange-corr  |
    |  z =   1.    zv( 1) =   1.    exfact =   5.00000         |
    |  ifpcor =  0           atomic energy =  -0.91772 Ry      |
    |  index    orbital      occupation    energy              |
    |    1        100           1.00       -0.48               |
    |  rinner =  0.5000                                        |
    |    new generation scheme:                                |
    |    nbeta =  1     kkbeta =  271     rcloc =    0.6000    |
    |    ibeta    l     epsilon   rcut                         |
    |      1       0      -0.48   0.80                         |
    ============================================================

     IMPORTANT: XC functional enforced from input :
     Exchange-correlation= BLYP
                           (   1   3   1   3   0   0   0)
     Any further DFT definition will be discarded
     Please, verify this is what you really want


     G-vector sticks info
     --------------------
     sticks:   dense  smooth     PW     G-vecs:    dense   smooth      PW
     Sum        7153    7153   1925               455863   455863   63461

     Using Slab Decomposition



     bravais-lattice index     =            1
     lattice parameter (alat)  =      30.0000  a.u.
     unit-cell volume          =   27000.0000 (a.u.)^3
     number of atoms/cell      =            2
     number of atomic types    =            1
     number of electrons       =         2.00
     number of Kohn-Sham states=            2
     kinetic-energy cutoff     =      25.0000  Ry
     charge density cutoff     =     100.0000  Ry
     scf convergence threshold =      1.0E-08
     mixing beta               =       0.7000
     number of iterations used =            8  plain     mixing
     energy convergence thresh.=      1.0E-04
     force convergence thresh. =      1.0E-03
     Exchange-correlation= BLYP
                           (   1   3   1   3   0   0   0)
     nstep                     =           50


     celldm(1)=  30.000000  celldm(2)=   0.000000  celldm(3)=   0.000000
     celldm(4)=   0.000000  celldm(5)=   0.000000  celldm(6)=   0.000000

     crystal axes: (cart. coord. in units of alat)
               a(1) = (   1.000000   0.000000   0.000000 )  
               a(2) = (   0.000000   1.000000   0.000000 )  
               a(3) = (   0.000000   0.000000   1.000000 )  

     reciprocal axes: (cart. coord. in units 2 pi/alat)
               b(1) = (  1.000000  0.000000  0.000000 )  
               b(2) = (  0.000000  1.000000  0.000000 )  
               b(3) = (  0.000000  0.000000  1.000000 )  


     PseudoPot. # 1 for hy read from file:
     /root/q-e/pseudo/H_US.van
     MD5 check sum: a9a9bfe98ff56cf4de197d71fc46bb44
     Pseudo is Ultrasoft, Zval =  1.0
     Generated by Vanderbilt code, v. 7.3.2
     Using radial grid of  399 points,  1 beta functions with: 
                l(1) =   0
     Q(r) pseudized with  8 coefficients,  rinner =    0.500

     atomic species   valence    mass     pseudopotential
        H              1.00     1.00784     hy( 1.00)

      8 Sym. Ops. (no inversion) found


                                    s                        frac. trans.

      isym =  1     identity                                     

 cryst.   s( 1) = (     1          0          0      )
                  (     0          1          0      )
                  (     0          0          1      )

 cart.    s( 1) = (  1.0000000  0.0000000  0.0000000 )
                  (  0.0000000  1.0000000  0.0000000 )
                  (  0.0000000  0.0000000  1.0000000 )


      isym =  2     180 deg rotation - cart. axis [1,0,0]        

 cryst.   s( 2) = (     1          0          0      )
                  (     0         -1          0      )
                  (     0          0         -1      )

 cart.    s( 2) = (  1.0000000  0.0000000  0.0000000 )
                  (  0.0000000 -1.0000000  0.0000000 )
                  (  0.0000000  0.0000000 -1.0000000 )


      isym =  3      90 deg rotation - cart. axis [-1,0,0]       

 cryst.   s( 3) = (     1          0          0      )
                  (     0          0         -1      )
                  (     0          1          0      )

 cart.    s( 3) = (  1.0000000  0.0000000  0.0000000 )
                  (  0.0000000  0.0000000  1.0000000 )
                  (  0.0000000 -1.0000000  0.0000000 )


      isym =  4      90 deg rotation - cart. axis [1,0,0]        

 cryst.   s( 4) = (     1          0          0      )
                  (     0          0          1      )
                  (     0         -1          0      )

 cart.    s( 4) = (  1.0000000  0.0000000  0.0000000 )
                  (  0.0000000  0.0000000 -1.0000000 )
                  (  0.0000000  1.0000000  0.0000000 )


      isym =  5     inv. 180 deg rotation - cart. axis [0,0,1]   

 cryst.   s( 5) = (     1          0          0      )
                  (     0          1          0      )
                  (     0          0         -1      )

 cart.    s( 5) = (  1.0000000  0.0000000  0.0000000 )
                  (  0.0000000  1.0000000  0.0000000 )
                  (  0.0000000  0.0000000 -1.0000000 )


      isym =  6     inv. 180 deg rotation - cart. axis [0,1,0]   

 cryst.   s( 6) = (     1          0          0      )
                  (     0         -1          0      )
                  (     0          0          1      )

 cart.    s( 6) = (  1.0000000  0.0000000  0.0000000 )
                  (  0.0000000 -1.0000000  0.0000000 )
                  (  0.0000000  0.0000000  1.0000000 )


      isym =  7     inv. 180 deg rotation - cart. axis [0,1,1]   

 cryst.   s( 7) = (     1          0          0      )
                  (     0          0         -1      )
                  (     0         -1          0      )

 cart.    s( 7) = (  1.0000000  0.0000000  0.0000000 )
                  (  0.0000000  0.0000000 -1.0000000 )
                  (  0.0000000 -1.0000000  0.0000000 )


      isym =  8     inv. 180 deg rotation - cart. axis [0,1,-1]  

 cryst.   s( 8) = (     1          0          0      )
                  (     0          0          1      )
                  (     0          1          0      )

 cart.    s( 8) = (  1.0000000  0.0000000  0.0000000 )
                  (  0.0000000  0.0000000  1.0000000 )
                  (  0.0000000  1.0000000  0.0000000 )


     point group C_4v (4mm) 
     there are  5 classes
     the character table:

       E     2C4   C2    2s_v  2s_d 
A_1    1.00  1.00  1.00  1.00  1.00
A_2    1.00  1.00  1.00 -1.00 -1.00
B_1    1.00 -1.00  1.00  1.00 -1.00
B_2    1.00 -1.00  1.00 -1.00  1.00
E      2.00  0.00 -2.00  0.00  0.00

     the symmetry operations in each class and the name of the first element:

     E        1
          identity                                               
     2C4      3    4
           90 deg rotation - cart. axis [-1,0,0]                 
     C2       2
          180 deg rotation - cart. axis [1,0,0]                  
     2s_v     5    6
          inv. 180 deg rotation - cart. axis [0,0,1]             
     2s_d     7    8
          inv. 180 deg rotation - cart. axis [0,1,1]             

   Cartesian axes

     site n.     atom                  positions (alat units)
         1           H   tau(   1) = (   0.0000000   0.0000000   0.0000000  )
         2           H   tau(   2) = (   0.0453534   0.0000000   0.0000000  )

   Crystallographic axes

     site n.     atom                  positions (cryst. coord.)
         1           H   tau(   1) = (  0.0000000  0.0000000  0.0000000  )
         2           H   tau(   2) = (  0.0453534  0.0000000  0.0000000  )

     number of k points=     1
                       cart. coord. in units 2pi/alat
        k(    1) = (  -0.5000000  -0.5000000  -0.5000000), wk =   2.0000000

                       cryst. coord.
        k(    1) = (  -0.5000000  -0.5000000  -0.5000000), wk =   2.0000000

     Dense  grid:   455863 G-vectors     FFT dimensions: (  96,  96,  96)

     Dynamical RAM for                 wfc:       1.74 MB

     Dynamical RAM for     wfc (w. buffer):       1.74 MB

     Dynamical RAM for           str. fact:       6.96 MB

     Dynamical RAM for           local pot:       0.00 MB

     Dynamical RAM for          nlocal pot:       1.74 MB

     Dynamical RAM for                qrad:       0.01 MB

     Dynamical RAM for          rho,v,vnew:      41.12 MB

     Dynamical RAM for               rhoin:      13.71 MB

     Dynamical RAM for            rho*nmix:     111.29 MB

     Dynamical RAM for           G-vectors:      29.56 MB

     Dynamical RAM for          h,s,v(r/c):       0.00 MB

     Dynamical RAM for          <psi|beta>:       0.00 MB

     Dynamical RAM for                 psi:       3.48 MB

     Dynamical RAM for                hpsi:       3.48 MB

     Dynamical RAM for                spsi:       3.48 MB

     Dynamical RAM for      wfcinit/wfcrot:       3.48 MB

     Dynamical RAM for           addusdens:      41.74 MB

     Dynamical RAM for          addusforce:      59.13 MB

     Estimated static dynamical RAM per process >     142.49 MB

     Estimated max dynamical RAM per process >     312.91 MB

     Initial potential from superposition of free atoms

     starting charge       2.0000, renormalised to       2.0000

     negative rho (up, down):  3.063E-02 0.000E+00
     Starting wfcs are    2 randomized atomic wfcs

     total cpu time spent up to now is        0.8 secs

     Self-consistent Calculation

     iteration #  1     ecut=    25.00 Ry     beta= 0.70
     Davidson diagonalization with overlap

---- Real-time Memory Report at c_bands before calling an iterative solver
           244 MiB given to the printing process from OS
             0 MiB allocation reported by mallinfo(arena+hblkhd)
           377 MiB available memory on the node where the printing process lives
------------------
     ethr =  1.00E-02,  avg # of iterations =  5.0

     negative rho (up, down):  4.397E-02 0.000E+00

     total cpu time spent up to now is        1.7 secs

     total energy              =      -2.30781348 Ry
     estimated scf accuracy    <       0.12691498 Ry

     iteration #  2     ecut=    25.00 Ry     beta= 0.70
     Davidson diagonalization with overlap

---- Real-time Memory Report at c_bands before calling an iterative solver
           307 MiB given to the printing process from OS
             0 MiB allocation reported by mallinfo(arena+hblkhd)
           252 MiB available memory on the node where the printing process lives
------------------
     ethr =  6.35E-03,  avg # of iterations =  1.0

     negative rho (up, down):  4.677E-02 0.000E+00

     total cpu time spent up to now is        2.4 secs

     total energy              =      -2.31520508 Ry
     estimated scf accuracy    <       0.00129107 Ry

     iteration #  3     ecut=    25.00 Ry     beta= 0.70
     Davidson diagonalization with overlap

---- Real-time Memory Report at c_bands before calling an iterative solver
           321 MiB given to the printing process from OS
             0 MiB allocation reported by mallinfo(arena+hblkhd)
           238 MiB available memory on the node where the printing process lives
------------------
     ethr =  6.46E-05,  avg # of iterations =  9.0

     negative rho (up, down):  4.661E-02 0.000E+00

     total cpu time spent up to now is        3.4 secs

     total energy              =      -2.31571346 Ry
     estimated scf accuracy    <       0.00001430 Ry

     iteration #  4     ecut=    25.00 Ry     beta= 0.70
     Davidson diagonalization with overlap

---- Real-time Memory Report at c_bands before calling an iterative solver
           335 MiB given to the printing process from OS
             0 MiB allocation reported by mallinfo(arena+hblkhd)
           224 MiB available memory on the node where the printing process lives
------------------
     ethr =  7.15E-07,  avg # of iterations =  5.0

     negative rho (up, down):  4.663E-02 0.000E+00

     total cpu time spent up to now is        4.3 secs

     total energy              =      -2.31570115 Ry
     estimated scf accuracy    <       0.00000026 Ry

     iteration #  5     ecut=    25.00 Ry     beta= 0.70
     Davidson diagonalization with overlap

---- Real-time Memory Report at c_bands before calling an iterative solver
           349 MiB given to the printing process from OS
             0 MiB allocation reported by mallinfo(arena+hblkhd)
           210 MiB available memory on the node where the printing process lives
------------------
     ethr =  1.30E-08,  avg # of iterations =  2.0

     negative rho (up, down):  4.663E-02 0.000E+00

     total cpu time spent up to now is        5.1 secs

     total energy              =      -2.31569796 Ry
     estimated scf accuracy    <       0.00000001 Ry

     iteration #  6     ecut=    25.00 Ry     beta= 0.70
     Davidson diagonalization with overlap

---- Real-time Memory Report at c_bands before calling an iterative solver
           363 MiB given to the printing process from OS
             0 MiB allocation reported by mallinfo(arena+hblkhd)
           196 MiB available memory on the node where the printing process lives
------------------
     ethr =  5.42E-10,  avg # of iterations =  2.0

     negative rho (up, down):  4.663E-02 0.000E+00

     total cpu time spent up to now is        5.8 secs

     End of self-consistent calculation

          k =-0.5000-0.5000-0.5000 ( 57016 PWs)   bands (ev):

   -10.5371  -1.1099

     occupation numbers 
     1.0000   0.0000

     highest occupied, lowest unoccupied level (ev):   -10.5371   -1.1099

!    total energy              =      -2.31569990 Ry
     estimated scf accuracy    <          3.3E-11 Ry

     The total energy is the sum of the following terms:
     one-electron contribution =      -4.28497311 Ry
     hartree contribution      =       2.28016571 Ry
     xc contribution           =      -1.40281092 Ry
     ewald contribution        =       1.09191842 Ry

     convergence has been achieved in   6 iterations

     Forces acting on atoms (cartesian axes, Ry/au):

     atom    1 type  1   force =    -0.04768650    0.00000000    0.00000000
     atom    2 type  1   force =     0.04768650    0.00000000    0.00000000
     The non-local contrib.  to forces
     atom    1 type  1   force =     0.10978653    0.00000000    0.00000000
     atom    2 type  1   force =    -0.10656934    0.00000000    0.00000000
     The ionic contribution  to forces
     atom    1 type  1   force =    -1.07993220   -0.00000000   -0.00000000
     atom    2 type  1   force =     1.07993220    0.00000000   -0.00000000
     The local contribution  to forces
     atom    1 type  1   force =     0.92415775    0.00000000    0.00000000
     atom    2 type  1   force =    -0.92396785    0.00000000    0.00000000
     The core correction contribution to forces
     atom    1 type  1   force =     0.00000000    0.00000000    0.00000000
     atom    2 type  1   force =     0.00000000    0.00000000    0.00000000
     The Hubbard contrib.    to forces
     atom    1 type  1   force =     0.00000000    0.00000000    0.00000000
     atom    2 type  1   force =     0.00000000    0.00000000    0.00000000
     The SCF correction term to forces
     atom    1 type  1   force =    -0.00002225    0.00000000    0.00000000
     atom    2 type  1   force =    -0.00003218    0.00000000    0.00000000

     Total force =     0.067439     Total SCF correction =     0.000039

     BFGS Geometry Optimization
     Energy error            =      0.0E+00 Ry
     Gradient error          =      4.8E-02 Ry/Bohr

     number of scf cycles    =   1
     number of bfgs steps    =   0

     energy             new  =      -2.3156998988 Ry

     new trust radius        =       0.0476864979 bohr
     new conv_thr            =       0.0000000100 Ry


ATOMIC_POSITIONS (angstrom)
H            -0.0252346080        0.0000000000        0.0000000000
H             0.7452346080        0.0000000000        0.0000000000



     Writing config-only to output data dir ./.save/
     NEW-OLD atomic charge density approx. for the potential

     negative rho (up, down):  4.637E-02 0.000E+00

     total cpu time spent up to now is        6.6 secs

     Self-consistent Calculation

     iteration #  1     ecut=    25.00 Ry     beta= 0.70
     Davidson diagonalization with overlap

---- Real-time Memory Report at c_bands before calling an iterative solver
           370 MiB given to the printing process from OS
             0 MiB allocation reported by mallinfo(arena+hblkhd)
           371 MiB available memory on the node where the printing process lives
------------------
     ethr =  1.00E-06,  avg # of iterations =  5.0

     negative rho (up, down):  4.436E-02 0.000E+00

     total cpu time spent up to now is        7.5 secs

     total energy              =      -2.31748877 Ry
     estimated scf accuracy    <       0.00074244 Ry

     iteration #  2     ecut=    25.00 Ry     beta= 0.70
     Davidson diagonalization with overlap

---- Real-time Memory Report at c_bands before calling an iterative solver
           370 MiB given to the printing process from OS
             0 MiB allocation reported by mallinfo(arena+hblkhd)
           246 MiB available memory on the node where the printing process lives
------------------
     ethr =  3.71E-05,  avg # of iterations =  1.0

     negative rho (up, down):  4.400E-02 0.000E+00

     total cpu time spent up to now is        8.2 secs

     total energy              =      -2.31781823 Ry
     estimated scf accuracy    <       0.00000813 Ry

     iteration #  3     ecut=    25.00 Ry     beta= 0.70
     Davidson diagonalization with overlap

---- Real-time Memory Report at c_bands before calling an iterative solver
           370 MiB given to the printing process from OS
             0 MiB allocation reported by mallinfo(arena+hblkhd)
           231 MiB available memory on the node where the printing process lives
------------------
     ethr =  4.07E-07,  avg # of iterations =  5.0

     negative rho (up, down):  4.395E-02 0.000E+00

     total cpu time spent up to now is        9.1 secs

     total energy              =      -2.31787074 Ry
     estimated scf accuracy    <       0.00000044 Ry

     iteration #  4     ecut=    25.00 Ry     beta= 0.70
     Davidson diagonalization with overlap

---- Real-time Memory Report at c_bands before calling an iterative solver
           370 MiB given to the printing process from OS
             0 MiB allocation reported by mallinfo(arena+hblkhd)
           218 MiB available memory on the node where the printing process lives
------------------
     ethr =  2.21E-08,  avg # of iterations =  2.0

     negative rho (up, down):  4.394E-02 0.000E+00

     total cpu time spent up to now is        9.8 secs

     End of self-consistent calculation

          k =-0.5000-0.5000-0.5000 ( 57016 PWs)   bands (ev):

   -10.2838  -1.0797

     occupation numbers 
     1.0000   0.0000

     highest occupied, lowest unoccupied level (ev):   -10.2838   -1.0797

!    total energy              =      -2.31787815 Ry
     estimated scf accuracy    <          7.3E-09 Ry

     The total energy is the sum of the following terms:
     one-electron contribution =      -4.15470572 Ry
     hartree contribution      =       2.21177646 Ry
     xc contribution           =      -1.37062177 Ry
     ewald contribution        =       0.99567287 Ry

     convergence has been achieved in   4 iterations

     Forces acting on atoms (cartesian axes, Ry/au):

     atom    1 type  1   force =     0.03545007    0.00000000    0.00000000
     atom    2 type  1   force =    -0.03545007    0.00000000    0.00000000
     The non-local contrib.  to forces
     atom    1 type  1   force =     0.10699566    0.00000000    0.00000000
     atom    2 type  1   force =    -0.10663207    0.00000000    0.00000000
     The ionic contribution  to forces
     atom    1 type  1   force =    -0.94300114   -0.00000000   -0.00000000
     atom    2 type  1   force =     0.94300114    0.00000000   -0.00000000
     The local contribution  to forces
     atom    1 type  1   force =     0.87172228    0.00000000    0.00000000
     atom    2 type  1   force =    -0.87147839    0.00000000    0.00000000
     The core correction contribution to forces
     atom    1 type  1   force =     0.00000000    0.00000000    0.00000000
     atom    2 type  1   force =     0.00000000    0.00000000    0.00000000
     The Hubbard contrib.    to forces
     atom    1 type  1   force =     0.00000000    0.00000000    0.00000000
     atom    2 type  1   force =     0.00000000    0.00000000    0.00000000
     The SCF correction term to forces
     atom    1 type  1   force =     0.00008901   -0.00000000   -0.00000000
     atom    2 type  1   force =     0.00001498   -0.00000000   -0.00000000

     Total force =     0.050134     Total SCF correction =     0.000090
     Energy error            =      2.2E-03 Ry
     Gradient error          =      3.5E-02 Ry/Bohr

     number of scf cycles    =   2
     number of bfgs steps    =   1

     energy             old  =      -2.3156998988 Ry
     energy             new  =      -2.3178781510 Ry

     CASE: energy            _new < energy            _old

     new trust radius        =       0.0203338883 bohr
     new conv_thr            =       0.0000000022 Ry


ATOMIC_POSITIONS (angstrom)
H            -0.0144743777        0.0000000000        0.0000000000
H             0.7344743777        0.0000000000        0.0000000000



     Writing config-only to output data dir ./.save/
     NEW-OLD atomic charge density approx. for the potential

     negative rho (up, down):  4.402E-02 0.000E+00

     total cpu time spent up to now is       10.6 secs

     Self-consistent Calculation

     iteration #  1     ecut=    25.00 Ry     beta= 0.70
     Davidson diagonalization with overlap

---- Real-time Memory Report at c_bands before calling an iterative solver
           370 MiB given to the printing process from OS
             0 MiB allocation reported by mallinfo(arena+hblkhd)
           371 MiB available memory on the node where the printing process lives
------------------
     ethr =  1.00E-06,  avg # of iterations =  3.0

     negative rho (up, down):  4.499E-02 0.000E+00

     total cpu time spent up to now is       11.5 secs

     total energy              =      -2.31793716 Ry
     estimated scf accuracy    <       0.00013062 Ry

     iteration #  2     ecut=    25.00 Ry     beta= 0.70
     Davidson diagonalization with overlap

---- Real-time Memory Report at c_bands before calling an iterative solver
           370 MiB given to the printing process from OS
             0 MiB allocation reported by mallinfo(arena+hblkhd)
           246 MiB available memory on the node where the printing process lives
------------------
     ethr =  6.53E-06,  avg # of iterations =  1.0

     negative rho (up, down):  4.520E-02 0.000E+00

     total cpu time spent up to now is       12.2 secs

     total energy              =      -2.31781121 Ry
     estimated scf accuracy    <       0.00000153 Ry

     iteration #  3     ecut=    25.00 Ry     beta= 0.70
     Davidson diagonalization with overlap

---- Real-time Memory Report at c_bands before calling an iterative solver
           370 MiB given to the printing process from OS
             0 MiB allocation reported by mallinfo(arena+hblkhd)
           231 MiB available memory on the node where the printing process lives
------------------
     ethr =  7.67E-08,  avg # of iterations =  2.0

     negative rho (up, down):  4.523E-02 0.000E+00

     total cpu time spent up to now is       13.0 secs

     total energy              =      -2.31778075 Ry
     estimated scf accuracy    <       0.00000007 Ry

     iteration #  4     ecut=    25.00 Ry     beta= 0.70
     Davidson diagonalization with overlap

---- Real-time Memory Report at c_bands before calling an iterative solver
           370 MiB given to the printing process from OS
             0 MiB allocation reported by mallinfo(arena+hblkhd)
           217 MiB available memory on the node where the printing process lives
------------------
     ethr =  3.37E-09,  avg # of iterations =  2.0

     negative rho (up, down):  4.524E-02 0.000E+00

     total cpu time spent up to now is       13.7 secs

     total energy              =      -2.31777433 Ry
     estimated scf accuracy    <          2.3E-09 Ry

     iteration #  5     ecut=    25.00 Ry     beta= 0.70
     Davidson diagonalization with overlap

---- Real-time Memory Report at c_bands before calling an iterative solver
           370 MiB given to the printing process from OS
             0 MiB allocation reported by mallinfo(arena+hblkhd)
           204 MiB available memory on the node where the printing process lives
------------------
     ethr =  1.17E-10,  avg # of iterations =  4.0

     negative rho (up, down):  4.523E-02 0.000E+00

     total cpu time spent up to now is       14.5 secs

     End of self-consistent calculation

          k =-0.5000-0.5000-0.5000 ( 57016 PWs)   bands (ev):

   -10.3896  -1.1041

     occupation numbers 
     1.0000   0.0000

     highest occupied, lowest unoccupied level (ev):   -10.3896   -1.1041

!    total energy              =      -2.31778590 Ry
     estimated scf accuracy    <          9.2E-10 Ry

     The total energy is the sum of the following terms:
     one-electron contribution =      -4.20940787 Ry
     hartree contribution      =       2.24064395 Ry
     xc contribution           =      -1.38414736 Ry
     ewald contribution        =       1.03512538 Ry

     convergence has been achieved in   5 iterations

     Forces acting on atoms (cartesian axes, Ry/au):

     atom    1 type  1   force =     0.00352837    0.00000000    0.00000000
     atom    2 type  1   force =    -0.00352837    0.00000000    0.00000000
     The non-local contrib.  to forces
     atom    1 type  1   force =     0.10826869    0.00000000    0.00000000
     atom    2 type  1   force =    -0.10706899    0.00000000    0.00000000
     The ionic contribution  to forces
     atom    1 type  1   force =    -0.99801194   -0.00000000   -0.00000000
     atom    2 type  1   force =     0.99801194   -0.00000000   -0.00000000
     The local contribution  to forces
     atom    1 type  1   force =     0.89397419    0.00000000    0.00000000
     atom    2 type  1   force =    -0.89371681    0.00000000    0.00000000
     The core correction contribution to forces
     atom    1 type  1   force =     0.00000000    0.00000000    0.00000000
     atom    2 type  1   force =     0.00000000    0.00000000    0.00000000
     The Hubbard contrib.    to forces
     atom    1 type  1   force =     0.00000000    0.00000000    0.00000000
     atom    2 type  1   force =     0.00000000    0.00000000    0.00000000
     The SCF correction term to forces
     atom    1 type  1   force =    -0.00000446    0.00000000    0.00000000
     atom    2 type  1   force =    -0.00005639   -0.00000000    0.00000000

     Total force =     0.004990     Total SCF correction =     0.000057
     Energy error            =      9.2E-05 Ry
     Gradient error          =      3.5E-03 Ry/Bohr

     number of scf cycles    =   3
     number of bfgs steps    =   2

     energy             old  =      -2.3178781510 Ry
     energy             new  =      -2.3177859044 Ry

     CASE: energy            _new > energy            _old

     new trust radius        =       0.0095555275 bohr
     new conv_thr            =       0.0000000022 Ry


ATOMIC_POSITIONS (angstrom)
H            -0.0201780406        0.0000000000        0.0000000000
H             0.7401780406        0.0000000000        0.0000000000



     Writing config-only to output data dir ./.save/
     NEW-OLD atomic charge density approx. for the potential

     negative rho (up, down):  4.518E-02 0.000E+00

     total cpu time spent up to now is       15.3 secs

     Self-consistent Calculation

     iteration #  1     ecut=    25.00 Ry     beta= 0.70
     Davidson diagonalization with overlap

---- Real-time Memory Report at c_bands before calling an iterative solver
           370 MiB given to the printing process from OS
             0 MiB allocation reported by mallinfo(arena+hblkhd)
           371 MiB available memory on the node where the printing process lives
------------------
     ethr =  1.00E-06,  avg # of iterations =  3.0

     negative rho (up, down):  4.470E-02 0.000E+00

     total cpu time spent up to now is       16.1 secs

     total energy              =      -2.31786735 Ry
     estimated scf accuracy    <       0.00003572 Ry

     iteration #  2     ecut=    25.00 Ry     beta= 0.70
     Davidson diagonalization with overlap

---- Real-time Memory Report at c_bands before calling an iterative solver
           370 MiB given to the printing process from OS
             0 MiB allocation reported by mallinfo(arena+hblkhd)
           246 MiB available memory on the node where the printing process lives
------------------
     ethr =  1.79E-06,  avg # of iterations =  1.0

     negative rho (up, down):  4.459E-02 0.000E+00

     total cpu time spent up to now is       16.8 secs

     total energy              =      -2.31793704 Ry
     estimated scf accuracy    <       0.00000058 Ry

     iteration #  3     ecut=    25.00 Ry     beta= 0.70
     Davidson diagonalization with overlap

---- Real-time Memory Report at c_bands before calling an iterative solver
           370 MiB given to the printing process from OS
             0 MiB allocation reported by mallinfo(arena+hblkhd)
           231 MiB available memory on the node where the printing process lives
------------------
     ethr =  2.88E-08,  avg # of iterations =  2.0

     negative rho (up, down):  4.458E-02 0.000E+00

     total cpu time spent up to now is       17.6 secs

     total energy              =      -2.31795194 Ry
     estimated scf accuracy    <       0.00000003 Ry

     iteration #  4     ecut=    25.00 Ry     beta= 0.70
     Davidson diagonalization with overlap

---- Real-time Memory Report at c_bands before calling an iterative solver
           370 MiB given to the printing process from OS
             0 MiB allocation reported by mallinfo(arena+hblkhd)
           217 MiB available memory on the node where the printing process lives
------------------
     ethr =  1.51E-09,  avg # of iterations =  3.0

     negative rho (up, down):  4.457E-02 0.000E+00

     total cpu time spent up to now is       18.4 secs

     total energy              =      -2.31795592 Ry
     estimated scf accuracy    <          7.7E-09 Ry

     iteration #  5     ecut=    25.00 Ry     beta= 0.70
     Davidson diagonalization with overlap

---- Real-time Memory Report at c_bands before calling an iterative solver
           370 MiB given to the printing process from OS
             0 MiB allocation reported by mallinfo(arena+hblkhd)
           204 MiB available memory on the node where the printing process lives
------------------
     ethr =  3.86E-10,  avg # of iterations =  3.0

     negative rho (up, down):  4.458E-02 0.000E+00

     total cpu time spent up to now is       19.1 secs

     End of self-consistent calculation

          k =-0.5000-0.5000-0.5000 ( 57016 PWs)   bands (ev):

   -10.3333  -1.0891

     occupation numbers 
     1.0000   0.0000

     highest occupied, lowest unoccupied level (ev):   -10.3333   -1.0891

!    total energy              =      -2.31794727 Ry
     estimated scf accuracy    <          1.5E-10 Ry

     The total energy is the sum of the following terms:
     one-electron contribution =      -4.18031391 Ry
     hartree contribution      =       2.22539379 Ry
     xc contribution           =      -1.37696164 Ry
     ewald contribution        =       1.01393449 Ry

     convergence has been achieved in   5 iterations

     Forces acting on atoms (cartesian axes, Ry/au):

     atom    1 type  1   force =     0.02108907    0.00000000    0.00000000
     atom    2 type  1   force =    -0.02108907    0.00000000    0.00000000
     The non-local contrib.  to forces
     atom    1 type  1   force =     0.10768989    0.00000000    0.00000000
     atom    2 type  1   force =    -0.10685866    0.00000000    0.00000000
     The ionic contribution  to forces
     atom    1 type  1   force =    -0.96827101    0.00000000   -0.00000000
     atom    2 type  1   force =     0.96827101    0.00000000   -0.00000000
     The local contribution  to forces
     atom    1 type  1   force =     0.88222592    0.00000000    0.00000000
     atom    2 type  1   force =    -0.88190208    0.00000000    0.00000000
     The core correction contribution to forces
     atom    1 type  1   force =     0.00000000    0.00000000    0.00000000
     atom    2 type  1   force =     0.00000000    0.00000000    0.00000000
     The Hubbard contrib.    to forces
     atom    1 type  1   force =     0.00000000    0.00000000    0.00000000
     atom    2 type  1   force =     0.00000000    0.00000000    0.00000000
     The SCF correction term to forces
     atom    1 type  1   force =     0.00004684   -0.00000000   -0.00000000
     atom    2 type  1   force =     0.00000322   -0.00000000    0.00000000

     Total force =     0.029824     Total SCF correction =     0.000047
     Energy error            =      6.9E-05 Ry
     Gradient error          =      2.1E-02 Ry/Bohr

     number of scf cycles    =   4
     number of bfgs steps    =   2

     energy             old  =      -2.3178781510 Ry
     energy             new  =      -2.3179472709 Ry

     CASE: energy            _new < energy            _old

     new trust radius        =       0.0140322569 bohr
     new conv_thr            =            1.0E-10 Ry


ATOMIC_POSITIONS (angstrom)
H            -0.0127524900        0.0000000000        0.0000000000
H             0.7327524900        0.0000000000        0.0000000000



     Writing config-only to output data dir ./.save/
     NEW-OLD atomic charge density approx. for the potential

     negative rho (up, down):  4.460E-02 0.000E+00

     total cpu time spent up to now is       19.9 secs

     Self-consistent Calculation

     iteration #  1     ecut=    25.00 Ry     beta= 0.70
     Davidson diagonalization with overlap

---- Real-time Memory Report at c_bands before calling an iterative solver
           370 MiB given to the printing process from OS
             0 MiB allocation reported by mallinfo(arena+hblkhd)
           371 MiB available memory on the node where the printing process lives
------------------
     ethr =  1.00E-06,  avg # of iterations =  3.0

     negative rho (up, down):  4.526E-02 0.000E+00

     total cpu time spent up to now is       20.7 secs

     total energy              =      -2.31776975 Ry
     estimated scf accuracy    <       0.00006298 Ry

     iteration #  2     ecut=    25.00 Ry     beta= 0.70
     Davidson diagonalization with overlap

---- Real-time Memory Report at c_bands before calling an iterative solver
           370 MiB given to the printing process from OS
             0 MiB allocation reported by mallinfo(arena+hblkhd)
           246 MiB available memory on the node where the printing process lives
------------------
     ethr =  3.15E-06,  avg # of iterations =  1.0

     negative rho (up, down):  4.540E-02 0.000E+00

     total cpu time spent up to now is       21.4 secs

     total energy              =      -2.31767548 Ry
     estimated scf accuracy    <       0.00000075 Ry

     iteration #  3     ecut=    25.00 Ry     beta= 0.70
     Davidson diagonalization with overlap

---- Real-time Memory Report at c_bands before calling an iterative solver
           370 MiB given to the printing process from OS
             0 MiB allocation reported by mallinfo(arena+hblkhd)
           231 MiB available memory on the node where the printing process lives
------------------
     ethr =  3.73E-08,  avg # of iterations =  2.0

     negative rho (up, down):  4.542E-02 0.000E+00

     total cpu time spent up to now is       22.2 secs

     total energy              =      -2.31765388 Ry
     estimated scf accuracy    <       0.00000004 Ry

     iteration #  4     ecut=    25.00 Ry     beta= 0.70
     Davidson diagonalization with overlap

---- Real-time Memory Report at c_bands before calling an iterative solver
           370 MiB given to the printing process from OS
             0 MiB allocation reported by mallinfo(arena+hblkhd)
           217 MiB available memory on the node where the printing process lives
------------------
     ethr =  2.05E-09,  avg # of iterations =  2.0

     negative rho (up, down):  4.542E-02 0.000E+00

     total cpu time spent up to now is       23.0 secs

     total energy              =      -2.31765344 Ry
     estimated scf accuracy    <          4.8E-09 Ry

     iteration #  5     ecut=    25.00 Ry     beta= 0.70
     Davidson diagonalization with overlap

---- Real-time Memory Report at c_bands before calling an iterative solver
           370 MiB given to the printing process from OS
             0 MiB allocation reported by mallinfo(arena+hblkhd)
           204 MiB available memory on the node where the printing process lives
------------------
     ethr =  2.40E-10,  avg # of iterations =  3.0

     negative rho (up, down):  4.542E-02 0.000E+00

     total cpu time spent up to now is       23.8 secs

     total energy              =      -2.31765085 Ry
     estimated scf accuracy    <          3.3E-10 Ry

     iteration #  6     ecut=    25.00 Ry     beta= 0.70
     Davidson diagonalization with overlap

---- Real-time Memory Report at c_bands before calling an iterative solver
           370 MiB given to the printing process from OS
             0 MiB allocation reported by mallinfo(arena+hblkhd)
           190 MiB available memory on the node where the printing process lives
------------------
     ethr =  1.63E-11,  avg # of iterations =  4.0

     negative rho (up, down):  4.542E-02 0.000E+00

     total cpu time spent up to now is       24.6 secs

     total energy              =      -2.31765464 Ry
     estimated scf accuracy    <          1.4E-10 Ry

     iteration #  7     ecut=    25.00 Ry     beta= 0.70
     Davidson diagonalization with overlap

---- Real-time Memory Report at c_bands before calling an iterative solver
           384 MiB given to the printing process from OS
             0 MiB allocation reported by mallinfo(arena+hblkhd)
           176 MiB available memory on the node where the printing process lives
------------------
     ethr =  6.98E-12,  avg # of iterations =  4.0

     negative rho (up, down):  4.542E-02 0.000E+00

     total cpu time spent up to now is       25.5 secs

     total energy              =      -2.31765291 Ry
     estimated scf accuracy    <          4.9E-10 Ry

     iteration #  8     ecut=    25.00 Ry     beta= 0.70
     Davidson diagonalization with overlap

---- Real-time Memory Report at c_bands before calling an iterative solver
           398 MiB given to the printing process from OS
             0 MiB allocation reported by mallinfo(arena+hblkhd)
           162 MiB available memory on the node where the printing process lives
------------------
     ethr =  6.98E-12,  avg # of iterations =  4.0

     negative rho (up, down):  4.542E-02 0.000E+00

     total cpu time spent up to now is       26.2 secs

     End of self-consistent calculation

          k =-0.5000-0.5000-0.5000 ( 57016 PWs)   bands (ev):

   -10.4068  -1.1051

     occupation numbers 
     1.0000   0.0000

     highest occupied, lowest unoccupied level (ev):   -10.4068   -1.1051

!    total energy              =      -2.31765479 Ry
     estimated scf accuracy    <          8.9E-11 Ry

     The total energy is the sum of the following terms:
     one-electron contribution =      -4.21832303 Ry
     hartree contribution      =       2.24538827 Ry
     xc contribution           =      -1.38637027 Ry
     ewald contribution        =       1.04165025 Ry

     convergence has been achieved in   8 iterations

     Forces acting on atoms (cartesian axes, Ry/au):

     atom    1 type  1   force =    -0.00208117    0.00000000    0.00000000
     atom    2 type  1   force =     0.00208117    0.00000000    0.00000000
     The non-local contrib.  to forces
     atom    1 type  1   force =     0.10858343    0.00000000    0.00000000
     atom    2 type  1   force =    -0.10689164    0.00000000    0.00000000
     The ionic contribution  to forces
     atom    1 type  1   force =    -1.00725979    0.00000000   -0.00000000
     atom    2 type  1   force =     1.00725979   -0.00000000   -0.00000000
     The local contribution  to forces
     atom    1 type  1   force =     0.89759490    0.00000000    0.00000000
     atom    2 type  1   force =    -0.89731390    0.00000000    0.00000000
     The core correction contribution to forces
     atom    1 type  1   force =     0.00000000    0.00000000    0.00000000
     atom    2 type  1   force =     0.00000000    0.00000000    0.00000000
     The Hubbard contrib.    to forces
     atom    1 type  1   force =     0.00000000    0.00000000    0.00000000
     atom    2 type  1   force =     0.00000000    0.00000000    0.00000000
     The SCF correction term to forces
     atom    1 type  1   force =     0.00000417   -0.00000000   -0.00000000
     atom    2 type  1   force =     0.00003079    0.00000000   -0.00000000

     Total force =     0.002943     Total SCF correction =     0.000031
     Energy error            =      2.9E-04 Ry
     Gradient error          =      2.1E-03 Ry/Bohr

     number of scf cycles    =   5
     number of bfgs steps    =   3

     energy             old  =      -2.3179472709 Ry
     energy             new  =      -2.3176547850 Ry

     CASE: energy            _new > energy            _old

     new trust radius        =       0.0046956210 bohr
     new conv_thr            =            1.0E-10 Ry


ATOMIC_POSITIONS (angstrom)
H            -0.0176932249        0.0000000000        0.0000000000
H             0.7376932249        0.0000000000        0.0000000000



     Writing config-only to output data dir ./.save/
     NEW-OLD atomic charge density approx. for the potential

     negative rho (up, down):  4.539E-02 0.000E+00

     total cpu time spent up to now is       27.0 secs

     Self-consistent Calculation

     iteration #  1     ecut=    25.00 Ry     beta= 0.70
     Davidson diagonalization with overlap

---- Real-time Memory Report at c_bands before calling an iterative solver
           398 MiB given to the printing process from OS
             0 MiB allocation reported by mallinfo(arena+hblkhd)
           371 MiB available memory on the node where the printing process lives
------------------
     ethr =  1.00E-06,  avg # of iterations =  3.0

     negative rho (up, down):  4.497E-02 0.000E+00

     total cpu time spent up to now is       27.9 secs

     total energy              =      -2.31785161 Ry
     estimated scf accuracy    <       0.00002782 Ry

     iteration #  2     ecut=    25.00 Ry     beta= 0.70
     Davidson diagonalization with overlap

---- Real-time Memory Report at c_bands before calling an iterative solver
           398 MiB given to the printing process from OS
             0 MiB allocation reported by mallinfo(arena+hblkhd)
           246 MiB available memory on the node where the printing process lives
------------------
     ethr =  1.39E-06,  avg # of iterations =  1.0

     negative rho (up, down):  4.488E-02 0.000E+00

     total cpu time spent up to now is       28.6 secs

     total energy              =      -2.31790356 Ry
     estimated scf accuracy    <       0.00000037 Ry

     iteration #  3     ecut=    25.00 Ry     beta= 0.70
     Davidson diagonalization with overlap

---- Real-time Memory Report at c_bands before calling an iterative solver
           398 MiB given to the printing process from OS
             0 MiB allocation reported by mallinfo(arena+hblkhd)
           231 MiB available memory on the node where the printing process lives
------------------
     ethr =  1.83E-08,  avg # of iterations =  2.0

     negative rho (up, down):  4.487E-02 0.000E+00

     total cpu time spent up to now is       29.4 secs

     total energy              =      -2.31792702 Ry
     estimated scf accuracy    <       0.00000002 Ry

     iteration #  4     ecut=    25.00 Ry     beta= 0.70
     Davidson diagonalization with overlap

---- Real-time Memory Report at c_bands before calling an iterative solver
           398 MiB given to the printing process from OS
             0 MiB allocation reported by mallinfo(arena+hblkhd)
           217 MiB available memory on the node where the printing process lives
------------------
     ethr =  8.22E-10,  avg # of iterations =  3.0

     negative rho (up, down):  4.487E-02 0.000E+00

     total cpu time spent up to now is       30.2 secs

     total energy              =      -2.31792206 Ry
     estimated scf accuracy    <          1.0E-09 Ry

     iteration #  5     ecut=    25.00 Ry     beta= 0.70
     Davidson diagonalization with overlap

---- Real-time Memory Report at c_bands before calling an iterative solver
           398 MiB given to the printing process from OS
             0 MiB allocation reported by mallinfo(arena+hblkhd)
           204 MiB available memory on the node where the printing process lives
------------------
     ethr =  5.00E-11,  avg # of iterations =  4.0

     negative rho (up, down):  4.487E-02 0.000E+00

     total cpu time spent up to now is       31.0 secs

     total energy              =      -2.31792050 Ry
     estimated scf accuracy    <          8.5E-10 Ry

     iteration #  6     ecut=    25.00 Ry     beta= 0.70
     Davidson diagonalization with overlap

---- Real-time Memory Report at c_bands before calling an iterative solver
           398 MiB given to the printing process from OS
             0 MiB allocation reported by mallinfo(arena+hblkhd)
           190 MiB available memory on the node where the printing process lives
------------------
     ethr =  4.23E-11,  avg # of iterations =  3.0

     negative rho (up, down):  4.487E-02 0.000E+00

     total cpu time spent up to now is       31.8 secs

     total energy              =      -2.31792113 Ry
     estimated scf accuracy    <          4.4E-10 Ry

     iteration #  7     ecut=    25.00 Ry     beta= 0.70
     Davidson diagonalization with overlap

---- Real-time Memory Report at c_bands before calling an iterative solver
           398 MiB given to the printing process from OS
             0 MiB allocation reported by mallinfo(arena+hblkhd)
           176 MiB available memory on the node where the printing process lives
------------------
     ethr =  2.21E-11,  avg # of iterations =  3.0

     negative rho (up, down):  4.487E-02 0.000E+00

     total cpu time spent up to now is       32.7 secs

     total energy              =      -2.31792121 Ry
     estimated scf accuracy    <          3.3E-10 Ry

     iteration #  8     ecut=    25.00 Ry     beta= 0.70
     Davidson diagonalization with overlap

---- Real-time Memory Report at c_bands before calling an iterative solver
           398 MiB given to the printing process from OS
             0 MiB allocation reported by mallinfo(arena+hblkhd)
           162 MiB available memory on the node where the printing process lives
------------------
     ethr =  1.67E-11,  avg # of iterations =  2.0

     negative rho (up, down):  4.487E-02 0.000E+00

     total cpu time spent up to now is       33.5 secs

     total energy              =      -2.31792124 Ry
     estimated scf accuracy    <          4.6E-10 Ry

     iteration #  9     ecut=    25.00 Ry     beta= 0.70
     Davidson diagonalization with overlap

---- Real-time Memory Report at c_bands before calling an iterative solver
           412 MiB given to the printing process from OS
             0 MiB allocation reported by mallinfo(arena+hblkhd)
           148 MiB available memory on the node where the printing process lives
------------------
     ethr =  1.67E-11,  avg # of iterations =  2.0

     negative rho (up, down):  4.487E-02 0.000E+00

     total cpu time spent up to now is       34.3 secs

     total energy              =      -2.31792300 Ry
     estimated scf accuracy    <          3.8E-10 Ry

     iteration # 10     ecut=    25.00 Ry     beta= 0.70
     Davidson diagonalization with overlap

---- Real-time Memory Report at c_bands before calling an iterative solver
           426 MiB given to the printing process from OS
             0 MiB allocation reported by mallinfo(arena+hblkhd)
           134 MiB available memory on the node where the printing process lives
------------------
     ethr =  1.67E-11,  avg # of iterations =  4.0

     negative rho (up, down):  4.487E-02 0.000E+00

     total cpu time spent up to now is       35.1 secs

     total energy              =      -2.31792288 Ry
     estimated scf accuracy    <          5.1E-09 Ry

     iteration # 11     ecut=    25.00 Ry     beta= 0.70
     Davidson diagonalization with overlap

---- Real-time Memory Report at c_bands before calling an iterative solver
           426 MiB given to the printing process from OS
             0 MiB allocation reported by mallinfo(arena+hblkhd)
           134 MiB available memory on the node where the printing process lives
------------------
     ethr =  1.67E-11,  avg # of iterations =  3.0

     negative rho (up, down):  4.487E-02 0.000E+00

     total cpu time spent up to now is       36.0 secs

     total energy              =      -2.31792084 Ry
     estimated scf accuracy    <          2.0E-09 Ry

     iteration # 12     ecut=    25.00 Ry     beta= 0.70
     Davidson diagonalization with overlap

---- Real-time Memory Report at c_bands before calling an iterative solver
           426 MiB given to the printing process from OS
             0 MiB allocation reported by mallinfo(arena+hblkhd)
           134 MiB available memory on the node where the printing process lives
------------------
     ethr =  1.67E-11,  avg # of iterations =  4.0

     negative rho (up, down):  4.487E-02 0.000E+00

     total cpu time spent up to now is       36.9 secs

     total energy              =      -2.31792227 Ry
     estimated scf accuracy    <          4.5E-10 Ry

     iteration # 13     ecut=    25.00 Ry     beta= 0.70
     Davidson diagonalization with overlap

---- Real-time Memory Report at c_bands before calling an iterative solver
           426 MiB given to the printing process from OS
             0 MiB allocation reported by mallinfo(arena+hblkhd)
           134 MiB available memory on the node where the printing process lives
------------------
     ethr =  1.67E-11,  avg # of iterations =  4.0

     negative rho (up, down):  4.487E-02 0.000E+00

     total cpu time spent up to now is       37.7 secs

     total energy              =      -2.31792082 Ry
     estimated scf accuracy    <          1.9E-09 Ry

     iteration # 14     ecut=    25.00 Ry     beta= 0.70
     Davidson diagonalization with overlap

---- Real-time Memory Report at c_bands before calling an iterative solver
           426 MiB given to the printing process from OS
             0 MiB allocation reported by mallinfo(arena+hblkhd)
           134 MiB available memory on the node where the printing process lives
------------------
     ethr =  1.67E-11,  avg # of iterations =  4.0

     negative rho (up, down):  4.487E-02 0.000E+00

     total cpu time spent up to now is       38.6 secs

     total energy              =      -2.31792146 Ry
     estimated scf accuracy    <          3.2E-10 Ry

     iteration # 15     ecut=    25.00 Ry     beta= 0.70
     Davidson diagonalization with overlap

---- Real-time Memory Report at c_bands before calling an iterative solver
           426 MiB given to the printing process from OS
             0 MiB allocation reported by mallinfo(arena+hblkhd)
           134 MiB available memory on the node where the printing process lives
------------------
     ethr =  1.62E-11,  avg # of iterations =  4.0

     negative rho (up, down):  4.487E-02 0.000E+00

     total cpu time spent up to now is       39.5 secs

     total energy              =      -2.31791847 Ry
     estimated scf accuracy    <          4.5E-10 Ry

     iteration # 16     ecut=    25.00 Ry     beta= 0.70
     Davidson diagonalization with overlap

---- Real-time Memory Report at c_bands before calling an iterative solver
           426 MiB given to the printing process from OS
             0 MiB allocation reported by mallinfo(arena+hblkhd)
           134 MiB available memory on the node where the printing process lives
------------------
     ethr =  1.62E-11,  avg # of iterations =  4.0

     negative rho (up, down):  4.487E-02 0.000E+00

     total cpu time spent up to now is       40.3 secs

     total energy              =      -2.31791889 Ry
     estimated scf accuracy    <          8.2E-10 Ry

     iteration # 17     ecut=    25.00 Ry     beta= 0.70
     Davidson diagonalization with overlap

---- Real-time Memory Report at c_bands before calling an iterative solver
           426 MiB given to the printing process from OS
             0 MiB allocation reported by mallinfo(arena+hblkhd)
           134 MiB available memory on the node where the printing process lives
------------------
     ethr =  1.62E-11,  avg # of iterations =  2.0

     negative rho (up, down):  4.487E-02 0.000E+00

     total cpu time spent up to now is       41.2 secs

     total energy              =      -2.31791889 Ry
     estimated scf accuracy    <          6.7E-10 Ry

     iteration # 18     ecut=    25.00 Ry     beta= 0.70
     Davidson diagonalization with overlap

---- Real-time Memory Report at c_bands before calling an iterative solver
           426 MiB given to the printing process from OS
             0 MiB allocation reported by mallinfo(arena+hblkhd)
           134 MiB available memory on the node where the printing process lives
------------------
     ethr =  1.62E-11,  avg # of iterations =  1.0

     negative rho (up, down):  4.487E-02 0.000E+00

     total cpu time spent up to now is       41.9 secs

     total energy              =      -2.31791848 Ry
     estimated scf accuracy    <          6.3E-10 Ry

     iteration # 19     ecut=    25.00 Ry     beta= 0.70
     Davidson diagonalization with overlap

---- Real-time Memory Report at c_bands before calling an iterative solver
           426 MiB given to the printing process from OS
             0 MiB allocation reported by mallinfo(arena+hblkhd)
           134 MiB available memory on the node where the printing process lives
------------------
     ethr =  1.62E-11,  avg # of iterations =  2.0

     negative rho (up, down):  4.487E-02 0.000E+00

     total cpu time spent up to now is       42.8 secs

     total energy              =      -2.31791935 Ry
     estimated scf accuracy    <          7.3E-10 Ry

     iteration # 20     ecut=    25.00 Ry     beta= 0.70
     Davidson diagonalization with overlap

---- Real-time Memory Report at c_bands before calling an iterative solver
           426 MiB given to the printing process from OS
             0 MiB allocation reported by mallinfo(arena+hblkhd)
           134 MiB available memory on the node where the printing process lives
------------------
     ethr =  1.62E-11,  avg # of iterations =  4.0

     negative rho (up, down):  4.487E-02 0.000E+00

     total cpu time spent up to now is       43.6 secs

     total energy              =      -2.31791961 Ry
     estimated scf accuracy    <          1.1E-10 Ry

     iteration # 21     ecut=    25.00 Ry     beta= 0.70
     Davidson diagonalization with overlap

---- Real-time Memory Report at c_bands before calling an iterative solver
           426 MiB given to the printing process from OS
             0 MiB allocation reported by mallinfo(arena+hblkhd)
           134 MiB available memory on the node where the printing process lives
------------------
     ethr =  5.63E-12,  avg # of iterations =  4.0

     negative rho (up, down):  4.487E-02 0.000E+00

     total cpu time spent up to now is       44.5 secs

     total energy              =      -2.31791971 Ry
     estimated scf accuracy    <          1.6E-10 Ry

     iteration # 22     ecut=    25.00 Ry     beta= 0.70
     Davidson diagonalization with overlap

---- Real-time Memory Report at c_bands before calling an iterative solver
           426 MiB given to the printing process from OS
             0 MiB allocation reported by mallinfo(arena+hblkhd)
           134 MiB available memory on the node where the printing process lives
------------------
     ethr =  5.63E-12,  avg # of iterations =  1.0

     negative rho (up, down):  4.487E-02 0.000E+00

     total cpu time spent up to now is       45.3 secs

     total energy              =      -2.31792050 Ry
     estimated scf accuracy    <          1.6E-10 Ry

     iteration # 23     ecut=    25.00 Ry     beta= 0.70
     Davidson diagonalization with overlap

---- Real-time Memory Report at c_bands before calling an iterative solver
           426 MiB given to the printing process from OS
             0 MiB allocation reported by mallinfo(arena+hblkhd)
           134 MiB available memory on the node where the printing process lives
------------------
     ethr =  5.63E-12,  avg # of iterations =  4.0

     negative rho (up, down):  4.487E-02 0.000E+00

     total cpu time spent up to now is       46.2 secs

     total energy              =      -2.31791826 Ry
     estimated scf accuracy    <          7.7E-10 Ry

     iteration # 24     ecut=    25.00 Ry     beta= 0.70
     Davidson diagonalization with overlap

---- Real-time Memory Report at c_bands before calling an iterative solver
           426 MiB given to the printing process from OS
             0 MiB allocation reported by mallinfo(arena+hblkhd)
           134 MiB available memory on the node where the printing process lives
------------------
     ethr =  5.63E-12,  avg # of iterations =  5.0

     negative rho (up, down):  4.487E-02 0.000E+00

     total cpu time spent up to now is       47.1 secs

     total energy              =      -2.31791676 Ry
     estimated scf accuracy    <          4.8E-10 Ry

     iteration # 25     ecut=    25.00 Ry     beta= 0.70
     Davidson diagonalization with overlap

---- Real-time Memory Report at c_bands before calling an iterative solver
           426 MiB given to the printing process from OS
             0 MiB allocation reported by mallinfo(arena+hblkhd)
           134 MiB available memory on the node where the printing process lives
------------------
     ethr =  5.63E-12,  avg # of iterations =  3.0

     negative rho (up, down):  4.487E-02 0.000E+00

     total cpu time spent up to now is       47.9 secs

     total energy              =      -2.31791677 Ry
     estimated scf accuracy    <          6.1E-10 Ry

     iteration # 26     ecut=    25.00 Ry     beta= 0.70
     Davidson diagonalization with overlap

---- Real-time Memory Report at c_bands before calling an iterative solver
           426 MiB given to the printing process from OS
             0 MiB allocation reported by mallinfo(arena+hblkhd)
           134 MiB available memory on the node where the printing process lives
------------------
     ethr =  5.63E-12,  avg # of iterations =  2.0

     negative rho (up, down):  4.487E-02 0.000E+00

     total cpu time spent up to now is       48.7 secs

     total energy              =      -2.31791794 Ry
     estimated scf accuracy    <          6.0E-10 Ry

     iteration # 27     ecut=    25.00 Ry     beta= 0.70
     Davidson diagonalization with overlap

---- Real-time Memory Report at c_bands before calling an iterative solver
           426 MiB given to the printing process from OS
             0 MiB allocation reported by mallinfo(arena+hblkhd)
           134 MiB available memory on the node where the printing process lives
------------------
     ethr =  5.63E-12,  avg # of iterations =  4.0

     negative rho (up, down):  4.487E-02 0.000E+00

     total cpu time spent up to now is       49.5 secs

     End of self-consistent calculation

          k =-0.5000-0.5000-0.5000 ( 57016 PWs)   bands (ev):

   -10.3575  -1.0929

     occupation numbers 
     1.0000   0.0000

     highest occupied, lowest unoccupied level (ev):   -10.3575   -1.0929

!    total energy              =      -2.31792330 Ry
     estimated scf accuracy    <          7.7E-11 Ry

     The total energy is the sum of the following terms:
     one-electron contribution =      -4.19296734 Ry
     hartree contribution      =       2.23206281 Ry
     xc contribution           =      -1.38010640 Ry
     ewald contribution        =       1.02308763 Ry

     convergence has been achieved in  27 iterations

     Forces acting on atoms (cartesian axes, Ry/au):

     atom    1 type  1   force =     0.01354719    0.00000000    0.00000000
     atom    2 type  1   force =    -0.01354719    0.00000000    0.00000000
     The non-local contrib.  to forces
     atom    1 type  1   force =     0.10788915    0.00000000    0.00000000
     atom    2 type  1   force =    -0.10691285    0.00000000    0.00000000
     The ionic contribution  to forces
     atom    1 type  1   force =    -0.98106219    0.00000000   -0.00000000
     atom    2 type  1   force =     0.98106219   -0.00000000   -0.00000000
     The local contribution  to forces
     atom    1 type  1   force =     0.88734406    0.00000000    0.00000000
     atom    2 type  1   force =    -0.88705452    0.00000000    0.00000000
     The core correction contribution to forces
     atom    1 type  1   force =     0.00000000    0.00000000    0.00000000
     atom    2 type  1   force =     0.00000000    0.00000000    0.00000000
     The Hubbard contrib.    to forces
     atom    1 type  1   force =     0.00000000    0.00000000    0.00000000
     atom    2 type  1   force =     0.00000000    0.00000000    0.00000000
     The SCF correction term to forces
     atom    1 type  1   force =    -0.00004155   -0.00000000    0.00000000
     atom    2 type  1   force =    -0.00005972   -0.00000000   -0.00000000

     Total force =     0.019159     Total SCF correction =     0.000073
     Energy error            =      2.4E-05 Ry
     Gradient error          =      1.4E-02 Ry/Bohr

     number of scf cycles    =   6
     number of bfgs steps    =   3

     energy             old  =      -2.3179472709 Ry
     energy             new  =      -2.3179232951 Ry

     CASE: energy            _new > energy            _old

     new trust radius        =       0.0020942815 bohr
     new conv_thr            =            1.0E-10 Ry


ATOMIC_POSITIONS (angstrom)
H            -0.0190697946        0.0000000000        0.0000000000
H             0.7390697946        0.0000000000        0.0000000000



     Writing config-only to output data dir ./.save/
     NEW-OLD atomic charge density approx. for the potential

     negative rho (up, down):  4.486E-02 0.000E+00

     total cpu time spent up to now is       50.3 secs

     Self-consistent Calculation

     iteration #  1     ecut=    25.00 Ry     beta= 0.70
     Davidson diagonalization with overlap

---- Real-time Memory Report at c_bands before calling an iterative solver
           426 MiB given to the printing process from OS
             0 MiB allocation reported by mallinfo(arena+hblkhd)
           371 MiB available memory on the node where the printing process lives
------------------
     ethr =  1.00E-06,  avg # of iterations =  2.0

     Threshold (ethr) on eigenvalues was too large:
     Diagonalizing with lowered threshold

     Davidson diagonalization with overlap

---- Real-time Memory Report at c_bands before calling an iterative solver
           426 MiB given to the printing process from OS
             0 MiB allocation reported by mallinfo(arena+hblkhd)
           371 MiB available memory on the node where the printing process lives
------------------
     ethr =  9.93E-08,  avg # of iterations =  1.0

     negative rho (up, down):  4.474E-02 0.000E+00

     total cpu time spent up to now is       51.3 secs

     total energy              =      -2.31793036 Ry
     estimated scf accuracy    <       0.00000211 Ry

     iteration #  2     ecut=    25.00 Ry     beta= 0.70
     Davidson diagonalization with overlap

---- Real-time Memory Report at c_bands before calling an iterative solver
           426 MiB given to the printing process from OS
             0 MiB allocation reported by mallinfo(arena+hblkhd)
           246 MiB available memory on the node where the printing process lives
------------------
     ethr =  1.06E-07,  avg # of iterations =  2.0

     negative rho (up, down):  4.472E-02 0.000E+00

     total cpu time spent up to now is       52.1 secs

     total energy              =      -2.31794055 Ry
     estimated scf accuracy    <       0.00000002 Ry

     iteration #  3     ecut=    25.00 Ry     beta= 0.70
     Davidson diagonalization with overlap

---- Real-time Memory Report at c_bands before calling an iterative solver
           426 MiB given to the printing process from OS
             0 MiB allocation reported by mallinfo(arena+hblkhd)
           231 MiB available memory on the node where the printing process lives
------------------
     ethr =  1.23E-09,  avg # of iterations =  3.0

     negative rho (up, down):  4.471E-02 0.000E+00

     total cpu time spent up to now is       52.8 secs

     total energy              =      -2.31795417 Ry
     estimated scf accuracy    <          5.1E-09 Ry

     iteration #  4     ecut=    25.00 Ry     beta= 0.70
     Davidson diagonalization with overlap

---- Real-time Memory Report at c_bands before calling an iterative solver
           426 MiB given to the printing process from OS
             0 MiB allocation reported by mallinfo(arena+hblkhd)
           217 MiB available memory on the node where the printing process lives
------------------
     ethr =  2.54E-10,  avg # of iterations =  3.0

     negative rho (up, down):  4.471E-02 0.000E+00

     total cpu time spent up to now is       53.6 secs

     total energy              =      -2.31795028 Ry
     estimated scf accuracy    <          3.2E-09 Ry

     iteration #  5     ecut=    25.00 Ry     beta= 0.70
     Davidson diagonalization with overlap

---- Real-time Memory Report at c_bands before calling an iterative solver
           426 MiB given to the printing process from OS
             0 MiB allocation reported by mallinfo(arena+hblkhd)
           204 MiB available memory on the node where the printing process lives
------------------
     ethr =  1.59E-10,  avg # of iterations =  3.0

     negative rho (up, down):  4.471E-02 0.000E+00

     total cpu time spent up to now is       54.4 secs

     total energy              =      -2.31795042 Ry
     estimated scf accuracy    <          1.7E-10 Ry

     iteration #  6     ecut=    25.00 Ry     beta= 0.70
     Davidson diagonalization with overlap

---- Real-time Memory Report at c_bands before calling an iterative solver
           426 MiB given to the printing process from OS
             0 MiB allocation reported by mallinfo(arena+hblkhd)
           190 MiB available memory on the node where the printing process lives
------------------
     ethr =  8.46E-12,  avg # of iterations =  4.0

     negative rho (up, down):  4.471E-02 0.000E+00

     total cpu time spent up to now is       55.2 secs

     End of self-consistent calculation

          k =-0.5000-0.5000-0.5000 ( 57016 PWs)   bands (ev):

   -10.3443  -1.0901

     occupation numbers 
     1.0000   0.0000

     highest occupied, lowest unoccupied level (ev):   -10.3443   -1.0901

!    total energy              =      -2.31794664 Ry
     estimated scf accuracy    <          6.1E-11 Ry

     The total energy is the sum of the following terms:
     one-electron contribution =      -4.18592693 Ry
     hartree contribution      =       2.22832348 Ry
     xc contribution           =      -1.37834521 Ry
     ewald contribution        =       1.01800202 Ry

     convergence has been achieved in   6 iterations

     Forces acting on atoms (cartesian axes, Ry/au):

     atom    1 type  1   force =     0.01769396    0.00000000    0.00000000
     atom    2 type  1   force =    -0.01769396    0.00000000    0.00000000
     The non-local contrib.  to forces
     atom    1 type  1   force =     0.10781806    0.00000000    0.00000000
     atom    2 type  1   force =    -0.10684013    0.00000000    0.00000000
     The ionic contribution  to forces
     atom    1 type  1   force =    -0.97394491   -0.00000000   -0.00000000
     atom    2 type  1   force =     0.97394491    0.00000000   -0.00000000
     The local contribution  to forces
     atom    1 type  1   force =     0.88449685    0.00000000    0.00000000
     atom    2 type  1   force =    -0.88419180    0.00000000    0.00000000
     The core correction contribution to forces
     atom    1 type  1   force =     0.00000000    0.00000000    0.00000000
     atom    2 type  1   force =     0.00000000    0.00000000    0.00000000
     The Hubbard contrib.    to forces
     atom    1 type  1   force =     0.00000000    0.00000000    0.00000000
     atom    2 type  1   force =     0.00000000    0.00000000    0.00000000
     The SCF correction term to forces
     atom    1 type  1   force =    -0.00000247    0.00000000   -0.00000000
     atom    2 type  1   force =     0.00006663    0.00000000   -0.00000000

     Total force =     0.025023     Total SCF correction =     0.000067
     Energy error            =      6.3E-07 Ry
     Gradient error          =      1.8E-02 Ry/Bohr

     number of scf cycles    =   7
     number of bfgs steps    =   3

     energy             old  =      -2.3179472709 Ry
     energy             new  =      -2.3179466375 Ry

     CASE: energy            _new > energy            _old

     new trust radius        =       0.0010396856 bohr
     new conv_thr            =            1.0E-10 Ry


ATOMIC_POSITIONS (angstrom)
H            -0.0196278626        0.0000000000        0.0000000000
H             0.7396278626        0.0000000000        0.0000000000



     Writing config-only to output data dir ./.save/
     NEW-OLD atomic charge density approx. for the potential

     negative rho (up, down):  4.470E-02 0.000E+00

     total cpu time spent up to now is       56.0 secs

     Self-consistent Calculation

     iteration #  1     ecut=    25.00 Ry     beta= 0.70
     Davidson diagonalization with overlap

---- Real-time Memory Report at c_bands before calling an iterative solver
           426 MiB given to the printing process from OS
             0 MiB allocation reported by mallinfo(arena+hblkhd)
           371 MiB available memory on the node where the printing process lives
------------------
     ethr =  1.00E-06,  avg # of iterations =  2.0

     Threshold (ethr) on eigenvalues was too large:
     Diagonalizing with lowered threshold

     Davidson diagonalization with overlap

---- Real-time Memory Report at c_bands before calling an iterative solver
           426 MiB given to the printing process from OS
             0 MiB allocation reported by mallinfo(arena+hblkhd)
           371 MiB available memory on the node where the printing process lives
------------------
     ethr =  1.41E-08,  avg # of iterations =  1.0

     negative rho (up, down):  4.466E-02 0.000E+00

     total cpu time spent up to now is       57.0 secs

     total energy              =      -2.31793990 Ry
     estimated scf accuracy    <       0.00000032 Ry

     iteration #  2     ecut=    25.00 Ry     beta= 0.70
     Davidson diagonalization with overlap

---- Real-time Memory Report at c_bands before calling an iterative solver
           426 MiB given to the printing process from OS
             0 MiB allocation reported by mallinfo(arena+hblkhd)
           246 MiB available memory on the node where the printing process lives
------------------
     ethr =  1.59E-08,  avg # of iterations =  2.0

     negative rho (up, down):  4.464E-02 0.000E+00

     total cpu time spent up to now is       57.7 secs

     total energy              =      -2.31794956 Ry
     estimated scf accuracy    <          6.5E-09 Ry

     iteration #  3     ecut=    25.00 Ry     beta= 0.70
     Davidson diagonalization with overlap

---- Real-time Memory Report at c_bands before calling an iterative solver
           426 MiB given to the printing process from OS
             0 MiB allocation reported by mallinfo(arena+hblkhd)
           231 MiB available memory on the node where the printing process lives
------------------
     ethr =  3.23E-10,  avg # of iterations =  3.0

     negative rho (up, down):  4.464E-02 0.000E+00

     total cpu time spent up to now is       58.5 secs

     total energy              =      -2.31794570 Ry
     estimated scf accuracy    <          1.2E-09 Ry

     iteration #  4     ecut=    25.00 Ry     beta= 0.70
     Davidson diagonalization with overlap

---- Real-time Memory Report at c_bands before calling an iterative solver
           426 MiB given to the printing process from OS
             0 MiB allocation reported by mallinfo(arena+hblkhd)
           217 MiB available memory on the node where the printing process lives
------------------
     ethr =  5.99E-11,  avg # of iterations =  4.0

     negative rho (up, down):  4.464E-02 0.000E+00

     total cpu time spent up to now is       59.3 secs

     total energy              =      -2.31794752 Ry
     estimated scf accuracy    <          8.6E-10 Ry

     iteration #  5     ecut=    25.00 Ry     beta= 0.70
     Davidson diagonalization with overlap

---- Real-time Memory Report at c_bands before calling an iterative solver
           426 MiB given to the printing process from OS
             0 MiB allocation reported by mallinfo(arena+hblkhd)
           204 MiB available memory on the node where the printing process lives
------------------
     ethr =  4.31E-11,  avg # of iterations =  3.0

     negative rho (up, down):  4.464E-02 0.000E+00

     total cpu time spent up to now is       60.0 secs

     End of self-consistent calculation

          k =-0.5000-0.5000-0.5000 ( 57016 PWs)   bands (ev):

   -10.3389  -1.0901

     occupation numbers 
     1.0000   0.0000

     highest occupied, lowest unoccupied level (ev):   -10.3389   -1.0901

!    total energy              =      -2.31794985 Ry
     estimated scf accuracy    <          7.9E-11 Ry

     The total energy is the sum of the following terms:
     one-electron contribution =      -4.18308393 Ry
     hartree contribution      =       2.22682024 Ry
     xc contribution           =      -1.37763697 Ry
     ewald contribution        =       1.01595081 Ry

     convergence has been achieved in   5 iterations

     Forces acting on atoms (cartesian axes, Ry/au):

     atom    1 type  1   force =     0.01951344    0.00000000    0.00000000
     atom    2 type  1   force =    -0.01951344    0.00000000    0.00000000
     The non-local contrib.  to forces
     atom    1 type  1   force =     0.10780891    0.00000000    0.00000000
     atom    2 type  1   force =    -0.10688508    0.00000000    0.00000000
     The ionic contribution  to forces
     atom    1 type  1   force =    -0.97108155   -0.00000000   -0.00000000
     atom    2 type  1   force =     0.97108155   -0.00000000   -0.00000000
     The local contribution  to forces
     atom    1 type  1   force =     0.88333384    0.00000000    0.00000000
     atom    2 type  1   force =    -0.88303953    0.00000000    0.00000000
     The core correction contribution to forces
     atom    1 type  1   force =     0.00000000    0.00000000    0.00000000
     atom    2 type  1   force =     0.00000000    0.00000000    0.00000000
     The Hubbard contrib.    to forces
     atom    1 type  1   force =     0.00000000    0.00000000    0.00000000
     atom    2 type  1   force =     0.00000000    0.00000000    0.00000000
     The SCF correction term to forces
     atom    1 type  1   force =     0.00017441    0.00000000    0.00000000
     atom    2 type  1   force =     0.00005178   -0.00000000   -0.00000000

     Total force =     0.027596     Total SCF correction =     0.000182
     Energy error            =      2.6E-06 Ry
     Gradient error          =      2.0E-02 Ry/Bohr

     number of scf cycles    =   8
     number of bfgs steps    =   3

     energy             old  =      -2.3179472709 Ry
     energy             new  =      -2.3179498483 Ry

     CASE: energy            _new < energy            _old

     new trust radius        =       0.0015595285 bohr
     new conv_thr            =            1.0E-10 Ry


ATOMIC_POSITIONS (angstrom)
H            -0.0188025957        0.0000000000        0.0000000000
H             0.7388025957        0.0000000000        0.0000000000



     Writing config-only to output data dir ./.save/
     NEW-OLD atomic charge density approx. for the potential

     negative rho (up, down):  4.465E-02 0.000E+00

     total cpu time spent up to now is       60.8 secs

     Self-consistent Calculation

     iteration #  1     ecut=    25.00 Ry     beta= 0.70
     Davidson diagonalization with overlap

---- Real-time Memory Report at c_bands before calling an iterative solver
           426 MiB given to the printing process from OS
             0 MiB allocation reported by mallinfo(arena+hblkhd)
           371 MiB available memory on the node where the printing process lives
------------------
     ethr =  1.00E-06,  avg # of iterations =  2.0

     Threshold (ethr) on eigenvalues was too large:
     Diagonalizing with lowered threshold

     Davidson diagonalization with overlap

---- Real-time Memory Report at c_bands before calling an iterative solver
           426 MiB given to the printing process from OS
             0 MiB allocation reported by mallinfo(arena+hblkhd)
           371 MiB available memory on the node where the printing process lives
------------------
     ethr =  3.27E-08,  avg # of iterations =  1.0

     negative rho (up, down):  4.472E-02 0.000E+00

     total cpu time spent up to now is       61.9 secs

     total energy              =      -2.31795854 Ry
     estimated scf accuracy    <       0.00000072 Ry

     iteration #  2     ecut=    25.00 Ry     beta= 0.70
     Davidson diagonalization with overlap

---- Real-time Memory Report at c_bands before calling an iterative solver
[...]
------------------
     ethr =  6.35E-12,  avg # of iterations =  4.0

     negative rho (up, down):  4.479E-02 0.000E+00

     total cpu time spent up to now is      407.9 secs

     End of self-consistent calculation

          k =-0.5000-0.5000-0.5000 ( 57016 PWs)   bands (ev):

   -10.3508  -1.0928

     occupation numbers 
     1.0000   0.0000

     highest occupied, lowest unoccupied level (ev):   -10.3508   -1.0928

!    total energy              =      -2.31794756 Ry
     estimated scf accuracy    <          5.9E-11 Ry

     The total energy is the sum of the following terms:
     one-electron contribution =      -4.18946708 Ry
     hartree contribution      =       2.23022520 Ry
     xc contribution           =      -1.37925064 Ry
     ewald contribution        =       1.02054496 Ry

     convergence has been achieved in  19 iterations

     Forces acting on atoms (cartesian axes, Ry/au):

     atom    1 type  1   force =     0.01566475    0.00000000    0.00000000
     atom    2 type  1   force =    -0.01566475    0.00000000    0.00000000
     The non-local contrib.  to forces
     atom    1 type  1   force =     0.10787164    0.00000000    0.00000000
     atom    2 type  1   force =    -0.10689653    0.00000000    0.00000000
     The ionic contribution  to forces
     atom    1 type  1   force =    -0.97750051   -0.00000000   -0.00000000
     atom    2 type  1   force =     0.97750051   -0.00000000   -0.00000000
     The local contribution  to forces
     atom    1 type  1   force =     0.88593437    0.00000000    0.00000000
     atom    2 type  1   force =    -0.88562907    0.00000000    0.00000000
     The core correction contribution to forces
     atom    1 type  1   force =     0.00000000    0.00000000    0.00000000
     atom    2 type  1   force =     0.00000000    0.00000000    0.00000000
     The Hubbard contrib.    to forces
     atom    1 type  1   force =     0.00000000    0.00000000    0.00000000
     atom    2 type  1   force =     0.00000000    0.00000000    0.00000000
     The SCF correction term to forces
     atom    1 type  1   force =     0.00000015    0.00000000    0.00000000
     atom    2 type  1   force =     0.00000125   -0.00000000    0.00000000

     Total force =     0.022153     Total SCF correction =     0.000001
     Energy error            =      9.4E-06 Ry
     Gradient error          =      1.6E-02 Ry/Bohr

     number of scf cycles    =  48
     number of bfgs steps    =   6

     energy             old  =      -2.3179569537 Ry
     energy             new  =      -2.3179475593 Ry

     CASE: energy            _new > energy            _old

     new trust radius        =       0.0008553023 bohr
     new conv_thr            =            1.0E-10 Ry


ATOMIC_POSITIONS (angstrom)
H            -0.0189498672        0.0000000000        0.0000000000
H             0.7389498672        0.0000000000        0.0000000000



     Writing config-only to output data dir ./.save/
     NEW-OLD atomic charge density approx. for the potential

     negative rho (up, down):  4.479E-02 0.000E+00

     total cpu time spent up to now is      408.8 secs

     Self-consistent Calculation

     iteration #  1     ecut=    25.00 Ry     beta= 0.70
     Davidson diagonalization with overlap

---- Real-time Memory Report at c_bands before calling an iterative solver
           426 MiB given to the printing process from OS
             0 MiB allocation reported by mallinfo(arena+hblkhd)
           371 MiB available memory on the node where the printing process lives
------------------
     ethr =  1.00E-06,  avg # of iterations =  2.0

     Threshold (ethr) on eigenvalues was too large:
     Diagonalizing with lowered threshold

     Davidson diagonalization with overlap

---- Real-time Memory Report at c_bands before calling an iterative solver
           426 MiB given to the printing process from OS
             0 MiB allocation reported by mallinfo(arena+hblkhd)
           372 MiB available memory on the node where the printing process lives
------------------
     ethr =  1.67E-08,  avg # of iterations =  1.0

     negative rho (up, down):  4.474E-02 0.000E+00

     total cpu time spent up to now is      409.8 secs

     total energy              =      -2.31794202 Ry
     estimated scf accuracy    <       0.00000037 Ry

     iteration #  2     ecut=    25.00 Ry     beta= 0.70
     Davidson diagonalization with overlap

---- Real-time Memory Report at c_bands before calling an iterative solver
           426 MiB given to the printing process from OS
             0 MiB allocation reported by mallinfo(arena+hblkhd)
           246 MiB available memory on the node where the printing process lives
------------------
     ethr =  1.85E-08,  avg # of iterations =  2.0

     negative rho (up, down):  4.473E-02 0.000E+00

     total cpu time spent up to now is      410.5 secs

     total energy              =      -2.31794185 Ry
     estimated scf accuracy    <          4.1E-09 Ry

     iteration #  3     ecut=    25.00 Ry     beta= 0.70
     Davidson diagonalization with overlap

---- Real-time Memory Report at c_bands before calling an iterative solver
           426 MiB given to the printing process from OS
             0 MiB allocation reported by mallinfo(arena+hblkhd)
           232 MiB available memory on the node where the printing process lives
------------------
     ethr =  2.07E-10,  avg # of iterations =  3.0

     negative rho (up, down):  4.472E-02 0.000E+00

     total cpu time spent up to now is      411.3 secs

     total energy              =      -2.31794847 Ry
     estimated scf accuracy    <          4.5E-10 Ry

     iteration #  4     ecut=    25.00 Ry     beta= 0.70
     Davidson diagonalization with overlap

---- Real-time Memory Report at c_bands before calling an iterative solver
           426 MiB given to the printing process from OS
             0 MiB allocation reported by mallinfo(arena+hblkhd)
           218 MiB available memory on the node where the printing process lives
------------------
     ethr =  2.24E-11,  avg # of iterations =  4.0

     negative rho (up, down):  4.472E-02 0.000E+00

     total cpu time spent up to now is      412.1 secs

     total energy              =      -2.31794736 Ry
     estimated scf accuracy    <          3.4E-10 Ry

     iteration #  5     ecut=    25.00 Ry     beta= 0.70
     Davidson diagonalization with overlap

---- Real-time Memory Report at c_bands before calling an iterative solver
           426 MiB given to the printing process from OS
             0 MiB allocation reported by mallinfo(arena+hblkhd)
           204 MiB available memory on the node where the printing process lives
------------------
     ethr =  1.71E-11,  avg # of iterations =  3.0

     negative rho (up, down):  4.472E-02 0.000E+00

     total cpu time spent up to now is      412.8 secs

     End of self-consistent calculation

          k =-0.5000-0.5000-0.5000 ( 57016 PWs)   bands (ev):

   -10.3454  -1.0905

     occupation numbers 
     1.0000   0.0000

     highest occupied, lowest unoccupied level (ev):   -10.3454   -1.0905

!    total energy              =      -2.31794565 Ry
     estimated scf accuracy    <          7.9E-11 Ry

     The total energy is the sum of the following terms:
     one-electron contribution =      -4.18655799 Ry
     hartree contribution      =       2.22868346 Ry
     xc contribution           =      -1.37851473 Ry
     ewald contribution        =       1.01844361 Ry

     convergence has been achieved in   5 iterations

     Forces acting on atoms (cartesian axes, Ry/au):

     atom    1 type  1   force =     0.01736302    0.00000000    0.00000000
     atom    2 type  1   force =    -0.01736302    0.00000000    0.00000000
     The non-local contrib.  to forces
     atom    1 type  1   force =     0.10786524    0.00000000    0.00000000
     atom    2 type  1   force =    -0.10684036    0.00000000    0.00000000
     The ionic contribution  to forces
     atom    1 type  1   force =    -0.97456189   -0.00000000   -0.00000000
     atom    2 type  1   force =     0.97456189    0.00000000   -0.00000000
     The local contribution  to forces
     atom    1 type  1   force =     0.88475858    0.00000000    0.00000000
     atom    2 type  1   force =    -0.88444939    0.00000000    0.00000000
     The core correction contribution to forces
     atom    1 type  1   force =     0.00000000    0.00000000    0.00000000
     atom    2 type  1   force =     0.00000000    0.00000000    0.00000000
     The Hubbard contrib.    to forces
     atom    1 type  1   force =     0.00000000    0.00000000    0.00000000
     atom    2 type  1   force =     0.00000000    0.00000000    0.00000000
     The SCF correction term to forces
     atom    1 type  1   force =     0.00000220   -0.00000000    0.00000000
     atom    2 type  1   force =     0.00006595   -0.00000000    0.00000000

     Total force =     0.024555     Total SCF correction =     0.000066
     Energy error            =      1.1E-05 Ry
     Gradient error          =      1.7E-02 Ry/Bohr

     number of scf cycles    =  49
     number of bfgs steps    =   6

     energy             old  =      -2.3179569537 Ry
     energy             new  =      -2.3179456529 Ry

     CASE: energy            _new > energy            _old

     new trust radius        =       0.0003164767 bohr
     new conv_thr            =            1.0E-10 Ry


ATOMIC_POSITIONS (angstrom)
H            -0.0192350015        0.0000000000        0.0000000000
H             0.7392350015        0.0000000000        0.0000000000



     Writing config-only to output data dir ./.save/
     NEW-OLD atomic charge density approx. for the potential

     negative rho (up, down):  4.472E-02 0.000E+00

     total cpu time spent up to now is      413.7 secs

     Self-consistent Calculation

     iteration #  1     ecut=    25.00 Ry     beta= 0.70
     Davidson diagonalization with overlap

---- Real-time Memory Report at c_bands before calling an iterative solver
           426 MiB given to the printing process from OS
             0 MiB allocation reported by mallinfo(arena+hblkhd)
           371 MiB available memory on the node where the printing process lives
------------------
     ethr =  1.00E-06,  avg # of iterations =  2.0

     Threshold (ethr) on eigenvalues was too large:
     Diagonalizing with lowered threshold

     Davidson diagonalization with overlap

---- Real-time Memory Report at c_bands before calling an iterative solver
           426 MiB given to the printing process from OS
             0 MiB allocation reported by mallinfo(arena+hblkhd)
           372 MiB available memory on the node where the printing process lives
------------------
     ethr =  3.88E-09,  avg # of iterations =  1.0

     negative rho (up, down):  4.470E-02 0.000E+00

     total cpu time spent up to now is      414.7 secs

     total energy              =      -2.31794020 Ry
     estimated scf accuracy    <       0.00000009 Ry

     iteration #  2     ecut=    25.00 Ry     beta= 0.70
     Davidson diagonalization with overlap

---- Real-time Memory Report at c_bands before calling an iterative solver
           426 MiB given to the printing process from OS
             0 MiB allocation reported by mallinfo(arena+hblkhd)
           246 MiB available memory on the node where the printing process lives
------------------
     ethr =  4.54E-09,  avg # of iterations =  2.0

     negative rho (up, down):  4.469E-02 0.000E+00

     total cpu time spent up to now is      415.4 secs

     total energy              =      -2.31794886 Ry
     estimated scf accuracy    <          3.5E-09 Ry

     iteration #  3     ecut=    25.00 Ry     beta= 0.70
     Davidson diagonalization with overlap

---- Real-time Memory Report at c_bands before calling an iterative solver
           426 MiB given to the printing process from OS
             0 MiB allocation reported by mallinfo(arena+hblkhd)
           232 MiB available memory on the node where the printing process lives
------------------
     ethr =  1.76E-10,  avg # of iterations =  3.0

     negative rho (up, down):  4.469E-02 0.000E+00

     total cpu time spent up to now is      416.2 secs

     total energy              =      -2.31794858 Ry
     estimated scf accuracy    <          2.3E-09 Ry

     iteration #  4     ecut=    25.00 Ry     beta= 0.70
     Davidson diagonalization with overlap

---- Real-time Memory Report at c_bands before calling an iterative solver
           426 MiB given to the printing process from OS
             0 MiB allocation reported by mallinfo(arena+hblkhd)
           218 MiB available memory on the node where the printing process lives
------------------
     ethr =  1.14E-10,  avg # of iterations =  3.0

     negative rho (up, down):  4.469E-02 0.000E+00

     total cpu time spent up to now is      417.0 secs

     total energy              =      -2.31794564 Ry
     estimated scf accuracy    <          8.7E-10 Ry

     iteration #  5     ecut=    25.00 Ry     beta= 0.70
     Davidson diagonalization with overlap

---- Real-time Memory Report at c_bands before calling an iterative solver
           426 MiB given to the printing process from OS
             0 MiB allocation reported by mallinfo(arena+hblkhd)
           204 MiB available memory on the node where the printing process lives
------------------
     ethr =  4.35E-11,  avg # of iterations =  3.0

     negative rho (up, down):  4.469E-02 0.000E+00

     total cpu time spent up to now is      417.7 secs

     End of self-consistent calculation

          k =-0.5000-0.5000-0.5000 ( 57016 PWs)   bands (ev):

   -10.3428  -1.0900

     occupation numbers 
     1.0000   0.0000

     highest occupied, lowest unoccupied level (ev):   -10.3428   -1.0900

!    total energy              =      -2.31794515 Ry
     estimated scf accuracy    <          5.8E-11 Ry

     The total energy is the sum of the following terms:
     one-electron contribution =      -4.18509182 Ry
     hartree contribution      =       2.22789225 Ry
     xc contribution           =      -1.37813974 Ry
     ewald contribution        =       1.01739416 Ry

     convergence has been achieved in   5 iterations

     Forces acting on atoms (cartesian axes, Ry/au):

     atom    1 type  1   force =     0.01821788    0.00000000    0.00000000
     atom    2 type  1   force =    -0.01821788    0.00000000    0.00000000
     The non-local contrib.  to forces
     atom    1 type  1   force =     0.10784515    0.00000000    0.00000000
     atom    2 type  1   force =    -0.10681380    0.00000000    0.00000000
     The ionic contribution  to forces
     atom    1 type  1   force =    -0.97309594    0.00000000   -0.00000000
     atom    2 type  1   force =     0.97309594   -0.00000000   -0.00000000
     The local contribution  to forces
     atom    1 type  1   force =     0.88415920    0.00000000    0.00000000
     atom    2 type  1   force =    -0.88385525    0.00000000    0.00000000
     The core correction contribution to forces
     atom    1 type  1   force =     0.00000000    0.00000000    0.00000000
     atom    2 type  1   force =     0.00000000    0.00000000    0.00000000
     The Hubbard contrib.    to forces
     atom    1 type  1   force =     0.00000000    0.00000000    0.00000000
     atom    2 type  1   force =     0.00000000    0.00000000    0.00000000
     The SCF correction term to forces
     atom    1 type  1   force =     0.00005013    0.00000000   -0.00000000
     atom    2 type  1   force =     0.00009589    0.00000000   -0.00000000

     Total force =     0.025764     Total SCF correction =     0.000108
     Energy error            =      1.2E-05 Ry
     Gradient error          =      1.8E-02 Ry/Bohr

     number of scf cycles    =  50
     number of bfgs steps    =   6

     energy             old  =      -2.3179569537 Ry
     energy             new  =      -2.3179451465 Ry

     CASE: energy            _new > energy            _old

     new trust radius        =       0.0000794400 bohr

     trust_radius < trust_radius_min

     resetting bfgs history


     The maximum number of steps has been reached.

     End of BFGS Geometry Optimization

ATOMIC_POSITIONS (angstrom)
H            -0.0094507153        0.0000000000        0.0000000000
H             0.7294507153        0.0000000000        0.0000000000



     Writing config-only to output data dir ./.save/
     NEW-OLD atomic charge density approx. for the potential

     negative rho (up, down):  4.468E-02 0.000E+00

     Writing all to output data dir ./.save/

     init_run     :      0.75s CPU      0.78s WALL (       1 calls)
     electrons    :    376.69s CPU    378.97s WALL (      50 calls)
     update_pot   :     24.87s CPU     25.37s WALL (      50 calls)
     forces       :      9.68s CPU      9.84s WALL (      50 calls)

     Called by init_run:
     wfcinit      :      0.06s CPU      0.06s WALL (       1 calls)
     wfcinit:atom :      0.00s CPU      0.00s WALL (       1 calls)
     wfcinit:wfcr :      0.05s CPU      0.05s WALL (       1 calls)
     potinit      :      0.44s CPU      0.46s WALL (       1 calls)
     hinit0       :      0.04s CPU      0.04s WALL (       1 calls)

     Called by electrons:
     c_bands      :     85.24s CPU     85.33s WALL (     481 calls)
     sum_band     :     48.92s CPU     49.29s WALL (     481 calls)
     v_of_rho     :    209.87s CPU    210.50s WALL (     509 calls)
     v_h          :     12.98s CPU     13.01s WALL (     509 calls)
     v_xc         :    196.88s CPU    197.48s WALL (     509 calls)
     newd         :     16.18s CPU     16.21s WALL (     509 calls)
     mix_rho      :     33.50s CPU     34.55s WALL (     481 calls)

     Called by c_bands:
     init_us_2    :      1.49s CPU      1.50s WALL (     963 calls)
     init_us_2:cp :      1.49s CPU      1.49s WALL (     963 calls)
     cegterg      :     84.23s CPU     84.33s WALL (     481 calls)

     Called by sum_band:
     sum_band:wei :      0.00s CPU      0.00s WALL (     481 calls)
     sum_band:loo :     14.42s CPU     14.44s WALL (     481 calls)
     sum_band:buf :      0.00s CPU      0.00s WALL (     481 calls)
     sum_band:ini :      0.76s CPU      0.77s WALL (     481 calls)
     sum_band:cal :      0.20s CPU      0.20s WALL (     481 calls)
     sum_band:bec :      0.00s CPU      0.00s WALL (     481 calls)
     addusdens    :      4.57s CPU      4.83s WALL (     481 calls)
     addusd:skk   :      1.29s CPU      1.38s WALL (     481 calls)
     addusd:dgemm :      0.99s CPU      1.04s WALL (     481 calls)
     addusd:qvan2 :      1.21s CPU      1.29s WALL (     481 calls)

     Called by *egterg:
     cdiaghg      :      0.04s CPU      0.04s WALL (    1789 calls)
     cegterg:over :      1.11s CPU      1.11s WALL (    1380 calls)
     cegterg:upda :      0.85s CPU      0.85s WALL (    1380 calls)
     cegterg:last :      1.69s CPU      1.69s WALL (    1104 calls)
     h_psi        :     78.70s CPU     78.78s WALL (    1862 calls)
     s_psi        :      0.47s CPU      0.47s WALL (    1862 calls)
     g_psi        :      0.37s CPU      0.37s WALL (    1380 calls)

     Called by h_psi:
     h_psi:calbec :      0.66s CPU      0.66s WALL (    1862 calls)
     vloc_psi     :     77.27s CPU     77.35s WALL (    1862 calls)
     add_vuspsi   :      0.50s CPU      0.50s WALL (    1862 calls)

     General routines
     calbec       :      0.91s CPU      0.91s WALL (    2543 calls)
     fft          :    112.64s CPU    112.71s WALL (    5772 calls)
     ffts         :      9.81s CPU      9.82s WALL (     481 calls)
     fftw         :     80.85s CPU     80.94s WALL (    6680 calls)


     PWSCF        :   6m55.58s CPU   6m58.59s WALL


   This run was terminated on:   3:42:52  28Feb2022            

=------------------------------------------------------------------------------=
   JOB DONE.
=------------------------------------------------------------------------------=
