
     Program PWSCF v.7.0 starts on 28Feb2022 at  4:11: 0 

     This program is part of the open-source Quantum ESPRESSO suite
     for quantum simulation of materials; please cite
         "P. Giannozzi et al., J. Phys.:Condens. Matter 21 395502 (2009);
         "P. Giannozzi et al., J. Phys.:Condens. Matter 29 465901 (2017);
         "P. Giannozzi et al., J. Chem. Phys. 152 154105 (2020);
          URL http://www.quantum-espresso.org", 
     in publications or presentations arising from this work. More details at
     http://www.quantum-espresso.org/quote

     Serial version
     601 MiB available memory on the printing compute node when the environment starts

     Waiting for input...
     Reading input from standard input

     Current dimensions of program PWSCF are:
     Max number of different atomic species (ntypx) = 10
     Max number of k-points (npk) =  40000
     Max angular momentum in pseudopotentials (lmaxx) =  4

     File ./.update deleted, as requested

     File ./.bfgs deleted, as requested

    ============================================================
    |  pseudopotential report for atomic species:  1           |
    |        pseudo potential version   7   3   2              |
    ------------------------------------------------------------
    |  hydrogen            PBE                  exchange-corr  |
    |  z =   1.    zv( 1) =   1.    exfact =   5.00000         |
    |  ifpcor =  0           atomic energy =  -0.91772 Ry      |
    |  index    orbital      occupation    energy              |
    |    1        100           1.00       -0.48               |
    |  rinner =  0.5000                                        |
    |    new generation scheme:                                |
    |    nbeta =  1     kkbeta =  271     rcloc =    0.6000    |
    |    ibeta    l     epsilon   rcut                         |
    |      1       0      -0.48   0.80                         |
    ============================================================

     IMPORTANT: XC functional enforced from input :
     Exchange-correlation= BLYP
                           (   1   3   1   3   0   0   0)
     Any further DFT definition will be discarded
     Please, verify this is what you really want


     G-vector sticks info
     --------------------
     sticks:   dense  smooth     PW     G-vecs:    dense   smooth      PW
     Sum        8585    8585   2289               599161   599161   82519

     Using Slab Decomposition



     bravais-lattice index     =            1
     lattice parameter (alat)  =      30.0000  a.u.
     unit-cell volume          =   27000.0000 (a.u.)^3
     number of atoms/cell      =            2
     number of atomic types    =            1
     number of electrons       =         2.00
     number of Kohn-Sham states=            2
     kinetic-energy cutoff     =      30.0000  Ry
     charge density cutoff     =     120.0000  Ry
     scf convergence threshold =      1.0E-08
     mixing beta               =       0.7000
     number of iterations used =            8  plain     mixing
     energy convergence thresh.=      1.0E-04
     force convergence thresh. =      1.0E-03
     Exchange-correlation= BLYP
                           (   1   3   1   3   0   0   0)
     nstep                     =           50


     celldm(1)=  30.000000  celldm(2)=   0.000000  celldm(3)=   0.000000
     celldm(4)=   0.000000  celldm(5)=   0.000000  celldm(6)=   0.000000

     crystal axes: (cart. coord. in units of alat)
               a(1) = (   1.000000   0.000000   0.000000 )  
               a(2) = (   0.000000   1.000000   0.000000 )  
               a(3) = (   0.000000   0.000000   1.000000 )  

     reciprocal axes: (cart. coord. in units 2 pi/alat)
               b(1) = (  1.000000  0.000000  0.000000 )  
               b(2) = (  0.000000  1.000000  0.000000 )  
               b(3) = (  0.000000  0.000000  1.000000 )  


     PseudoPot. # 1 for hy read from file:
     /root/q-e/pseudo/H_US.van
     MD5 check sum: a9a9bfe98ff56cf4de197d71fc46bb44
     Pseudo is Ultrasoft, Zval =  1.0
     Generated by Vanderbilt code, v. 7.3.2
     Using radial grid of  399 points,  1 beta functions with: 
                l(1) =   0
     Q(r) pseudized with  8 coefficients,  rinner =    0.500

     atomic species   valence    mass     pseudopotential
        H              1.00     1.00784     hy( 1.00)

      8 Sym. Ops. (no inversion) found


                                    s                        frac. trans.

      isym =  1     identity                                     

 cryst.   s( 1) = (     1          0          0      )
                  (     0          1          0      )
                  (     0          0          1      )

 cart.    s( 1) = (  1.0000000  0.0000000  0.0000000 )
                  (  0.0000000  1.0000000  0.0000000 )
                  (  0.0000000  0.0000000  1.0000000 )


      isym =  2     180 deg rotation - cart. axis [1,0,0]        

 cryst.   s( 2) = (     1          0          0      )
                  (     0         -1          0      )
                  (     0          0         -1      )

 cart.    s( 2) = (  1.0000000  0.0000000  0.0000000 )
                  (  0.0000000 -1.0000000  0.0000000 )
                  (  0.0000000  0.0000000 -1.0000000 )


      isym =  3      90 deg rotation - cart. axis [-1,0,0]       

 cryst.   s( 3) = (     1          0          0      )
                  (     0          0         -1      )
                  (     0          1          0      )

 cart.    s( 3) = (  1.0000000  0.0000000  0.0000000 )
                  (  0.0000000  0.0000000  1.0000000 )
                  (  0.0000000 -1.0000000  0.0000000 )


      isym =  4      90 deg rotation - cart. axis [1,0,0]        

 cryst.   s( 4) = (     1          0          0      )
                  (     0          0          1      )
                  (     0         -1          0      )

 cart.    s( 4) = (  1.0000000  0.0000000  0.0000000 )
                  (  0.0000000  0.0000000 -1.0000000 )
                  (  0.0000000  1.0000000  0.0000000 )


      isym =  5     inv. 180 deg rotation - cart. axis [0,0,1]   

 cryst.   s( 5) = (     1          0          0      )
                  (     0          1          0      )
                  (     0          0         -1      )

 cart.    s( 5) = (  1.0000000  0.0000000  0.0000000 )
                  (  0.0000000  1.0000000  0.0000000 )
                  (  0.0000000  0.0000000 -1.0000000 )


      isym =  6     inv. 180 deg rotation - cart. axis [0,1,0]   

 cryst.   s( 6) = (     1          0          0      )
                  (     0         -1          0      )
                  (     0          0          1      )

 cart.    s( 6) = (  1.0000000  0.0000000  0.0000000 )
                  (  0.0000000 -1.0000000  0.0000000 )
                  (  0.0000000  0.0000000  1.0000000 )


      isym =  7     inv. 180 deg rotation - cart. axis [0,1,1]   

 cryst.   s( 7) = (     1          0          0      )
                  (     0          0         -1      )
                  (     0         -1          0      )

 cart.    s( 7) = (  1.0000000  0.0000000  0.0000000 )
                  (  0.0000000  0.0000000 -1.0000000 )
                  (  0.0000000 -1.0000000  0.0000000 )


      isym =  8     inv. 180 deg rotation - cart. axis [0,1,-1]  

 cryst.   s( 8) = (     1          0          0      )
                  (     0          0          1      )
                  (     0          1          0      )

 cart.    s( 8) = (  1.0000000  0.0000000  0.0000000 )
                  (  0.0000000  0.0000000  1.0000000 )
                  (  0.0000000  1.0000000  0.0000000 )


     point group C_4v (4mm) 
     there are  5 classes
     the character table:

       E     2C4   C2    2s_v  2s_d 
A_1    1.00  1.00  1.00  1.00  1.00
A_2    1.00  1.00  1.00 -1.00 -1.00
B_1    1.00 -1.00  1.00  1.00 -1.00
B_2    1.00 -1.00  1.00 -1.00  1.00
E      2.00  0.00 -2.00  0.00  0.00

     the symmetry operations in each class and the name of the first element:

     E        1
          identity                                               
     2C4      3    4
           90 deg rotation - cart. axis [-1,0,0]                 
     C2       2
          180 deg rotation - cart. axis [1,0,0]                  
     2s_v     5    6
          inv. 180 deg rotation - cart. axis [0,0,1]             
     2s_d     7    8
          inv. 180 deg rotation - cart. axis [0,1,1]             

   Cartesian axes

     site n.     atom                  positions (alat units)
         1           H   tau(   1) = (   0.0000000   0.0000000   0.0000000  )
         2           H   tau(   2) = (   0.0453534   0.0000000   0.0000000  )

   Crystallographic axes

     site n.     atom                  positions (cryst. coord.)
         1           H   tau(   1) = (  0.0000000  0.0000000  0.0000000  )
         2           H   tau(   2) = (  0.0453534  0.0000000  0.0000000  )

     number of k points=     1
                       cart. coord. in units 2pi/alat
        k(    1) = (  -0.5000000  -0.5000000  -0.5000000), wk =   2.0000000

                       cryst. coord.
        k(    1) = (  -0.5000000  -0.5000000  -0.5000000), wk =   2.0000000

     Dense  grid:   599161 G-vectors     FFT dimensions: ( 108, 108, 108)

     Dynamical RAM for                 wfc:       2.29 MB

     Dynamical RAM for     wfc (w. buffer):       2.29 MB

     Dynamical RAM for           str. fact:       9.14 MB

     Dynamical RAM for           local pot:       0.00 MB

     Dynamical RAM for          nlocal pot:       2.29 MB

     Dynamical RAM for                qrad:       0.01 MB

     Dynamical RAM for          rho,v,vnew:      56.26 MB

     Dynamical RAM for               rhoin:      18.75 MB

     Dynamical RAM for            rho*nmix:     146.28 MB

     Dynamical RAM for           G-vectors:      38.86 MB

     Dynamical RAM for          h,s,v(r/c):       0.00 MB

     Dynamical RAM for          <psi|beta>:       0.00 MB

     Dynamical RAM for                 psi:       4.57 MB

     Dynamical RAM for                hpsi:       4.57 MB

     Dynamical RAM for                spsi:       4.57 MB

     Dynamical RAM for      wfcinit/wfcrot:       4.57 MB

     Dynamical RAM for           addusdens:      54.85 MB

     Dynamical RAM for          addusforce:      77.71 MB

     Estimated static dynamical RAM per process >     193.93 MB

     Estimated max dynamical RAM per process >     417.92 MB

     Initial potential from superposition of free atoms

     starting charge       2.0000, renormalised to       2.0000

     negative rho (up, down):  1.560E-02 0.000E+00
     Starting wfcs are    2 randomized atomic wfcs

     total cpu time spent up to now is        1.1 secs

     Self-consistent Calculation

     iteration #  1     ecut=    30.00 Ry     beta= 0.70
     Davidson diagonalization with overlap

---- Real-time Memory Report at c_bands before calling an iterative solver
           332 MiB given to the printing process from OS
             0 MiB allocation reported by mallinfo(arena+hblkhd)
           375 MiB available memory on the node where the printing process lives
------------------
     ethr =  1.00E-02,  avg # of iterations =  5.0

     negative rho (up, down):  2.170E-02 0.000E+00

     total cpu time spent up to now is        2.3 secs

     total energy              =      -2.30792627 Ry
     estimated scf accuracy    <       0.12447262 Ry

     iteration #  2     ecut=    30.00 Ry     beta= 0.70
     Davidson diagonalization with overlap

---- Real-time Memory Report at c_bands before calling an iterative solver
           423 MiB given to the printing process from OS
             0 MiB allocation reported by mallinfo(arena+hblkhd)
           190 MiB available memory on the node where the printing process lives
------------------
     ethr =  6.22E-03,  avg # of iterations =  1.0

     negative rho (up, down):  2.300E-02 0.000E+00

     total cpu time spent up to now is        3.4 secs

     total energy              =      -2.31635510 Ry
     estimated scf accuracy    <       0.00119003 Ry

     iteration #  3     ecut=    30.00 Ry     beta= 0.70
     Davidson diagonalization with overlap

---- Real-time Memory Report at c_bands before calling an iterative solver
           442 MiB given to the printing process from OS
             0 MiB allocation reported by mallinfo(arena+hblkhd)
           172 MiB available memory on the node where the printing process lives
------------------
     ethr =  5.95E-05,  avg # of iterations =  9.0

     negative rho (up, down):  2.290E-02 0.000E+00

     total cpu time spent up to now is        4.8 secs

     total energy              =      -2.31680689 Ry
     estimated scf accuracy    <       0.00001368 Ry

     iteration #  4     ecut=    30.00 Ry     beta= 0.70
     Davidson diagonalization with overlap

---- Real-time Memory Report at c_bands before calling an iterative solver
           460 MiB given to the printing process from OS
             0 MiB allocation reported by mallinfo(arena+hblkhd)
           153 MiB available memory on the node where the printing process lives
------------------
     ethr =  6.84E-07,  avg # of iterations =  5.0

     negative rho (up, down):  2.291E-02 0.000E+00

     total cpu time spent up to now is        6.1 secs

     total energy              =      -2.31680189 Ry
     estimated scf accuracy    <       0.00000029 Ry

     iteration #  5     ecut=    30.00 Ry     beta= 0.70
     Davidson diagonalization with overlap

---- Real-time Memory Report at c_bands before calling an iterative solver
           478 MiB given to the printing process from OS
             0 MiB allocation reported by mallinfo(arena+hblkhd)
           135 MiB available memory on the node where the printing process lives
------------------
     ethr =  1.46E-08,  avg # of iterations =  1.0

     negative rho (up, down):  2.291E-02 0.000E+00

     total cpu time spent up to now is        7.1 secs

     End of self-consistent calculation

          k =-0.5000-0.5000-0.5000 ( 74736 PWs)   bands (ev):

   -10.4635  -0.7037

     occupation numbers 
     1.0000   0.0000

     highest occupied, lowest unoccupied level (ev):   -10.4635   -0.7037

!    total energy              =      -2.31680135 Ry
     estimated scf accuracy    <          9.8E-09 Ry

     The total energy is the sum of the following terms:
     one-electron contribution =      -4.28182042 Ry
     hartree contribution      =       2.27233181 Ry
     xc contribution           =      -1.39923116 Ry
     ewald contribution        =       1.09191842 Ry

     convergence has been achieved in   5 iterations

     Forces acting on atoms (cartesian axes, Ry/au):

     atom    1 type  1   force =    -0.04856331    0.00000000    0.00000000
     atom    2 type  1   force =     0.04856331    0.00000000    0.00000000
     The non-local contrib.  to forces
     atom    1 type  1   force =     0.11136885    0.00000000    0.00000000
     atom    2 type  1   force =    -0.11120663    0.00000000    0.00000000
     The ionic contribution  to forces
     atom    1 type  1   force =    -1.07993220   -0.00000000   -0.00000000
     atom    2 type  1   force =     1.07993220    0.00000000   -0.00000000
     The local contribution  to forces
     atom    1 type  1   force =     0.92009102    0.00000000    0.00000000
     atom    2 type  1   force =    -0.92009950    0.00000000    0.00000000
     The core correction contribution to forces
     atom    1 type  1   force =     0.00000000    0.00000000    0.00000000
     atom    2 type  1   force =     0.00000000    0.00000000    0.00000000
     The Hubbard contrib.    to forces
     atom    1 type  1   force =     0.00000000    0.00000000    0.00000000
     atom    2 type  1   force =     0.00000000    0.00000000    0.00000000
     The SCF correction term to forces
     atom    1 type  1   force =     0.00000336    0.00000000    0.00000000
     atom    2 type  1   force =     0.00003160   -0.00000000    0.00000000

     Total force =     0.068679     Total SCF correction =     0.000032

     BFGS Geometry Optimization
     Energy error            =      0.0E+00 Ry
     Gradient error          =      4.9E-02 Ry/Bohr

     number of scf cycles    =   1
     number of bfgs steps    =   0

     energy             new  =      -2.3168013479 Ry

     new trust radius        =       0.0485633148 bohr
     new conv_thr            =       0.0000000100 Ry


ATOMIC_POSITIONS (angstrom)
H            -0.0256985995        0.0000000000        0.0000000000
H             0.7456985995        0.0000000000        0.0000000000



     Writing config-only to output data dir ./.save/
     NEW-OLD atomic charge density approx. for the potential

     negative rho (up, down):  2.207E-02 0.000E+00

     total cpu time spent up to now is        8.2 secs

     Self-consistent Calculation

     iteration #  1     ecut=    30.00 Ry     beta= 0.70
     Davidson diagonalization with overlap

---- Real-time Memory Report at c_bands before calling an iterative solver
           488 MiB given to the printing process from OS
             0 MiB allocation reported by mallinfo(arena+hblkhd)
           361 MiB available memory on the node where the printing process lives
------------------
     ethr =  1.00E-06,  avg # of iterations =  7.0

     negative rho (up, down):  2.098E-02 0.000E+00

     total cpu time spent up to now is        9.6 secs

     total energy              =      -2.31863186 Ry
     estimated scf accuracy    <       0.00078148 Ry

     iteration #  2     ecut=    30.00 Ry     beta= 0.70
     Davidson diagonalization with overlap

---- Real-time Memory Report at c_bands before calling an iterative solver
           488 MiB given to the printing process from OS
             0 MiB allocation reported by mallinfo(arena+hblkhd)
           180 MiB available memory on the node where the printing process lives
------------------
     ethr =  3.91E-05,  avg # of iterations =  1.0

     negative rho (up, down):  2.077E-02 0.000E+00

     total cpu time spent up to now is       10.7 secs

     total energy              =      -2.31881462 Ry
     estimated scf accuracy    <       0.00000809 Ry

     iteration #  3     ecut=    30.00 Ry     beta= 0.70
     Davidson diagonalization with overlap

---- Real-time Memory Report at c_bands before calling an iterative solver
           488 MiB given to the printing process from OS
             0 MiB allocation reported by mallinfo(arena+hblkhd)
           163 MiB available memory on the node where the printing process lives
------------------
     ethr =  4.05E-07,  avg # of iterations =  5.0

     negative rho (up, down):  2.074E-02 0.000E+00

     total cpu time spent up to now is       12.0 secs

     total energy              =      -2.31883167 Ry
     estimated scf accuracy    <       0.00000046 Ry

     iteration #  4     ecut=    30.00 Ry     beta= 0.70
     Davidson diagonalization with overlap

---- Real-time Memory Report at c_bands before calling an iterative solver
           488 MiB given to the printing process from OS
             0 MiB allocation reported by mallinfo(arena+hblkhd)
           144 MiB available memory on the node where the printing process lives
------------------
     ethr =  2.32E-08,  avg # of iterations =  2.0

     negative rho (up, down):  2.074E-02 0.000E+00

     total cpu time spent up to now is       13.0 secs

     End of self-consistent calculation

          k =-0.5000-0.5000-0.5000 ( 74736 PWs)   bands (ev):

   -10.2061  -0.5774

     occupation numbers 
     1.0000   0.0000

     highest occupied, lowest unoccupied level (ev):   -10.2061   -0.5774

!    total energy              =      -2.31883095 Ry
     estimated scf accuracy    <          3.0E-10 Ry

     The total energy is the sum of the following terms:
     one-electron contribution =      -4.14927455 Ry
     hartree contribution      =       2.20276052 Ry
     xc contribution           =      -1.36633810 Ry
     ewald contribution        =       0.99402119 Ry

     convergence has been achieved in   4 iterations

     Forces acting on atoms (cartesian axes, Ry/au):

     atom    1 type  1   force =     0.02719087    0.00000000    0.00000000
     atom    2 type  1   force =    -0.02719087    0.00000000    0.00000000
     The non-local contrib.  to forces
     atom    1 type  1   force =     0.10081757    0.00000000    0.00000000
     atom    2 type  1   force =    -0.10093370    0.00000000    0.00000000
     The ionic contribution  to forces
     atom    1 type  1   force =    -0.94073201   -0.00000000   -0.00000000
     atom    2 type  1   force =     0.94073201    0.00000000   -0.00000000
     The local contribution  to forces
     atom    1 type  1   force =     0.86704722    0.00000000    0.00000000
     atom    2 type  1   force =    -0.86703902    0.00000000    0.00000000
     The core correction contribution to forces
     atom    1 type  1   force =     0.00000000    0.00000000    0.00000000
     atom    2 type  1   force =     0.00000000    0.00000000    0.00000000
     The Hubbard contrib.    to forces
     atom    1 type  1   force =     0.00000000    0.00000000    0.00000000
     atom    2 type  1   force =     0.00000000    0.00000000    0.00000000
     The SCF correction term to forces
     atom    1 type  1   force =     0.00000448    0.00000000    0.00000000
     atom    2 type  1   force =    -0.00000379    0.00000000   -0.00000000

     Total force =     0.038454     Total SCF correction =     0.000006
     Energy error            =      2.0E-03 Ry
     Gradient error          =      2.7E-02 Ry/Bohr

     number of scf cycles    =   2
     number of bfgs steps    =   1

     energy             old  =      -2.3168013479 Ry
     energy             new  =      -2.3188309458 Ry

     CASE: energy            _new < energy            _old

     new trust radius        =       0.0174311007 bohr
     new conv_thr            =       0.0000000020 Ry


ATOMIC_POSITIONS (angstrom)
H            -0.0164744582        0.0000000000        0.0000000000
H             0.7364744582        0.0000000000        0.0000000000



     Writing config-only to output data dir ./.save/
     NEW-OLD atomic charge density approx. for the potential

     negative rho (up, down):  2.098E-02 0.000E+00

     total cpu time spent up to now is       14.1 secs

     Self-consistent Calculation

     iteration #  1     ecut=    30.00 Ry     beta= 0.70
     Davidson diagonalization with overlap

---- Real-time Memory Report at c_bands before calling an iterative solver
           488 MiB given to the printing process from OS
             0 MiB allocation reported by mallinfo(arena+hblkhd)
           363 MiB available memory on the node where the printing process lives
------------------
     ethr =  1.00E-06,  avg # of iterations =  6.0

     negative rho (up, down):  2.141E-02 0.000E+00

     total cpu time spent up to now is       15.4 secs

     total energy              =      -2.31899806 Ry
     estimated scf accuracy    <       0.00009361 Ry

     iteration #  2     ecut=    30.00 Ry     beta= 0.70
     Davidson diagonalization with overlap

---- Real-time Memory Report at c_bands before calling an iterative solver
           488 MiB given to the printing process from OS
             0 MiB allocation reported by mallinfo(arena+hblkhd)
           181 MiB available memory on the node where the printing process lives
------------------
     ethr =  4.68E-06,  avg # of iterations =  1.0

     negative rho (up, down):  2.151E-02 0.000E+00

     total cpu time spent up to now is       16.4 secs

     total energy              =      -2.31894949 Ry
     estimated scf accuracy    <       0.00000104 Ry

     iteration #  3     ecut=    30.00 Ry     beta= 0.70
     Davidson diagonalization with overlap

---- Real-time Memory Report at c_bands before calling an iterative solver
           488 MiB given to the printing process from OS
             0 MiB allocation reported by mallinfo(arena+hblkhd)
           163 MiB available memory on the node where the printing process lives
------------------
     ethr =  5.18E-08,  avg # of iterations =  2.0

     negative rho (up, down):  2.153E-02 0.000E+00

     total cpu time spent up to now is       17.5 secs

     total energy              =      -2.31894120 Ry
     estimated scf accuracy    <       0.00000005 Ry

     iteration #  4     ecut=    30.00 Ry     beta= 0.70
     Davidson diagonalization with overlap

---- Real-time Memory Report at c_bands before calling an iterative solver
           488 MiB given to the printing process from OS
             0 MiB allocation reported by mallinfo(arena+hblkhd)
           145 MiB available memory on the node where the printing process lives
------------------
     ethr =  2.28E-09,  avg # of iterations =  2.0

     negative rho (up, down):  2.152E-02 0.000E+00

     total cpu time spent up to now is       18.5 secs

     End of self-consistent calculation

          k =-0.5000-0.5000-0.5000 ( 74736 PWs)   bands (ev):

   -10.2961  -0.6231

     occupation numbers 
     1.0000   0.0000

     highest occupied, lowest unoccupied level (ev):   -10.2961   -0.6231

!    total energy              =      -2.31894198 Ry
     estimated scf accuracy    <          2.6E-11 Ry

     The total energy is the sum of the following terms:
     one-electron contribution =      -4.19592748 Ry
     hartree contribution      =       2.22725067 Ry
     xc contribution           =      -1.37788647 Ry
     ewald contribution        =       1.02762130 Ry

     convergence has been achieved in   4 iterations

     Forces acting on atoms (cartesian axes, Ry/au):

     atom    1 type  1   force =     0.00358296    0.00000000    0.00000000
     atom    2 type  1   force =    -0.00358296    0.00000000    0.00000000
     The non-local contrib.  to forces
     atom    1 type  1   force =     0.10518395    0.00000000    0.00000000
     atom    2 type  1   force =    -0.10519764    0.00000000    0.00000000
     The ionic contribution  to forces
     atom    1 type  1   force =    -0.98742884   -0.00000000   -0.00000000
     atom    2 type  1   force =     0.98742884    0.00000000   -0.00000000
     The local contribution  to forces
     atom    1 type  1   force =     0.88581510    0.00000000    0.00000000
     atom    2 type  1   force =    -0.88582529    0.00000000    0.00000000
     The core correction contribution to forces
     atom    1 type  1   force =     0.00000000    0.00000000    0.00000000
     atom    2 type  1   force =     0.00000000    0.00000000    0.00000000
     The Hubbard contrib.    to forces
     atom    1 type  1   force =     0.00000000    0.00000000    0.00000000
     atom    2 type  1   force =     0.00000000    0.00000000    0.00000000
     The SCF correction term to forces
     atom    1 type  1   force =    -0.00000375    0.00000000   -0.00000000
     atom    2 type  1   force =    -0.00000537   -0.00000000    0.00000000

     Total force =     0.005067     Total SCF correction =     0.000007
     Energy error            =      1.1E-04 Ry
     Gradient error          =      3.6E-03 Ry/Bohr

     number of scf cycles    =   3
     number of bfgs steps    =   2

     energy             old  =      -2.3188309458 Ry
     energy             new  =      -2.3189419757 Ry

     CASE: energy            _new < energy            _old

     new trust radius        =       0.0026455081 bohr
     new conv_thr            =       0.0000000001 Ry


ATOMIC_POSITIONS (angstrom)
H            -0.0150745156        0.0000000000        0.0000000000
H             0.7350745156        0.0000000000        0.0000000000



     Writing config-only to output data dir ./.save/
     NEW-OLD atomic charge density approx. for the potential

     negative rho (up, down):  2.156E-02 0.000E+00

     total cpu time spent up to now is       19.6 secs

     Self-consistent Calculation

     iteration #  1     ecut=    30.00 Ry     beta= 0.70
     Davidson diagonalization with overlap

---- Real-time Memory Report at c_bands before calling an iterative solver
           488 MiB given to the printing process from OS
             0 MiB allocation reported by mallinfo(arena+hblkhd)
           363 MiB available memory on the node where the printing process lives
------------------
     ethr =  1.00E-06,  avg # of iterations =  2.0

     negative rho (up, down):  2.163E-02 0.000E+00

     total cpu time spent up to now is       20.7 secs

     total energy              =      -2.31890127 Ry
     estimated scf accuracy    <       0.00000210 Ry

     iteration #  2     ecut=    30.00 Ry     beta= 0.70
     Davidson diagonalization with overlap

---- Real-time Memory Report at c_bands before calling an iterative solver
           488 MiB given to the printing process from OS
             0 MiB allocation reported by mallinfo(arena+hblkhd)
           181 MiB available memory on the node where the printing process lives
------------------
     ethr =  1.05E-07,  avg # of iterations =  1.0

     negative rho (up, down):  2.164E-02 0.000E+00

     total cpu time spent up to now is       21.7 secs

     total energy              =      -2.31889437 Ry
     estimated scf accuracy    <       0.00000004 Ry

     iteration #  3     ecut=    30.00 Ry     beta= 0.70
     Davidson diagonalization with overlap

---- Real-time Memory Report at c_bands before calling an iterative solver
           488 MiB given to the printing process from OS
             0 MiB allocation reported by mallinfo(arena+hblkhd)
           163 MiB available memory on the node where the printing process lives
------------------
     ethr =  2.06E-09,  avg # of iterations =  2.0

     negative rho (up, down):  2.164E-02 0.000E+00

     total cpu time spent up to now is       22.8 secs

     total energy              =      -2.31889382 Ry
     estimated scf accuracy    <          1.3E-09 Ry

     iteration #  4     ecut=    30.00 Ry     beta= 0.70
     Davidson diagonalization with overlap

---- Real-time Memory Report at c_bands before calling an iterative solver
           488 MiB given to the printing process from OS
             0 MiB allocation reported by mallinfo(arena+hblkhd)
           145 MiB available memory on the node where the printing process lives
------------------
     ethr =  6.53E-11,  avg # of iterations =  2.0

     negative rho (up, down):  2.164E-02 0.000E+00

     total cpu time spent up to now is       23.8 secs

     End of self-consistent calculation

          k =-0.5000-0.5000-0.5000 ( 74736 PWs)   bands (ev):

   -10.3102  -0.6315

     occupation numbers 
     1.0000   0.0000

     highest occupied, lowest unoccupied level (ev):   -10.3102   -0.6315

!    total energy              =      -2.31889229 Ry
     estimated scf accuracy    <          6.9E-11 Ry

     The total energy is the sum of the following terms:
     one-electron contribution =      -4.20309177 Ry
     hartree contribution      =       2.23100493 Ry
     xc contribution           =      -1.37967076 Ry
     ewald contribution        =       1.03286532 Ry

     convergence has been achieved in   4 iterations

     Forces acting on atoms (cartesian axes, Ry/au):

     atom    1 type  1   force =    -0.00032714    0.00000000    0.00000000
     atom    2 type  1   force =     0.00032714    0.00000000    0.00000000
     The non-local contrib.  to forces
     atom    1 type  1   force =     0.10578774    0.00000000    0.00000000
     atom    2 type  1   force =    -0.10580414    0.00000000    0.00000000
     The ionic contribution  to forces
     atom    1 type  1   force =    -0.99481863   -0.00000000   -0.00000000
     atom    2 type  1   force =     0.99481863    0.00000000   -0.00000000
     The local contribution  to forces
     atom    1 type  1   force =     0.88869221    0.00000000    0.00000000
     atom    2 type  1   force =    -0.88870211    0.00000000    0.00000000
     The core correction contribution to forces
     atom    1 type  1   force =     0.00000000    0.00000000    0.00000000
     atom    2 type  1   force =     0.00000000    0.00000000    0.00000000
     The Hubbard contrib.    to forces
     atom    1 type  1   force =     0.00000000    0.00000000    0.00000000
     atom    2 type  1   force =     0.00000000    0.00000000    0.00000000
     The SCF correction term to forces
     atom    1 type  1   force =     0.00000161   -0.00000000    0.00000000
     atom    2 type  1   force =     0.00000484    0.00000000   -0.00000000

     Total force =     0.000463     Total SCF correction =     0.000005
     Energy error            =      5.0E-05 Ry
     Gradient error          =      3.3E-04 Ry/Bohr

     bfgs converged in   4 scf cycles and   3 bfgs steps
     (criteria: energy <  1.0E-04 Ry, force <  1.0E-03 Ry/Bohr)

     End of BFGS Geometry Optimization

     Final energy             =      -2.3188922854 Ry

     File ./.bfgs deleted, as requested
Begin final coordinates

ATOMIC_POSITIONS (angstrom)
H            -0.0150745156        0.0000000000        0.0000000000
H             0.7350745156        0.0000000000        0.0000000000
End final coordinates



     Writing all to output data dir ./.save/

     init_run     :      1.00s CPU      1.04s WALL (       1 calls)
     electrons    :     19.54s CPU     19.70s WALL (       4 calls)
     update_pot   :      1.97s CPU      2.01s WALL (       3 calls)
     forces       :      1.07s CPU      1.08s WALL (       4 calls)

     Called by init_run:
     wfcinit      :      0.10s CPU      0.10s WALL (       1 calls)
     wfcinit:atom :      0.00s CPU      0.00s WALL (       1 calls)
     wfcinit:wfcr :      0.09s CPU      0.09s WALL (       1 calls)
     potinit      :      0.57s CPU      0.60s WALL (       1 calls)
     hinit0       :      0.05s CPU      0.06s WALL (       1 calls)

     Called by electrons:
     c_bands      :      5.45s CPU      5.46s WALL (      17 calls)
     sum_band     :      2.54s CPU      2.56s WALL (      17 calls)
     v_of_rho     :     11.49s CPU     11.58s WALL (      21 calls)
     v_h          :      0.80s CPU      0.81s WALL (      21 calls)
     v_xc         :     10.69s CPU     10.77s WALL (      21 calls)
     newd         :      0.97s CPU      0.98s WALL (      21 calls)
     mix_rho      :      1.01s CPU      1.05s WALL (      17 calls)

     Called by c_bands:
     init_us_2    :      0.07s CPU      0.07s WALL (      35 calls)
     init_us_2:cp :      0.07s CPU      0.07s WALL (      35 calls)
     cegterg      :      5.40s CPU      5.41s WALL (      17 calls)

     Called by sum_band:
     sum_band:wei :      0.00s CPU      0.00s WALL (      17 calls)
     sum_band:loo :      0.79s CPU      0.80s WALL (      17 calls)
     sum_band:buf :      0.00s CPU      0.00s WALL (      17 calls)
     sum_band:ini :      0.04s CPU      0.04s WALL (      17 calls)
     sum_band:cal :      0.01s CPU      0.01s WALL (      17 calls)
     sum_band:bec :      0.00s CPU      0.00s WALL (      17 calls)
     addusdens    :      0.21s CPU      0.22s WALL (      17 calls)
     addusd:skk   :      0.05s CPU      0.06s WALL (      17 calls)
     addusd:dgemm :      0.05s CPU      0.05s WALL (      17 calls)
     addusd:qvan2 :      0.06s CPU      0.06s WALL (      17 calls)

     Called by *egterg:
     cdiaghg      :      0.00s CPU      0.00s WALL (      68 calls)
     cegterg:over :      0.07s CPU      0.07s WALL (      54 calls)
     cegterg:upda :      0.05s CPU      0.05s WALL (      54 calls)
     cegterg:last :      0.11s CPU      0.11s WALL (      46 calls)
     h_psi        :      5.15s CPU      5.16s WALL (      72 calls)
     s_psi        :      0.03s CPU      0.03s WALL (      72 calls)
     g_psi        :      0.02s CPU      0.02s WALL (      54 calls)

     Called by h_psi:
     h_psi:calbec :      0.03s CPU      0.03s WALL (      72 calls)
     vloc_psi     :      5.07s CPU      5.08s WALL (      72 calls)
     add_vuspsi   :      0.03s CPU      0.03s WALL (      72 calls)

     General routines
     calbec       :      0.05s CPU      0.05s WALL (     105 calls)
     fft          :      7.14s CPU      7.15s WALL (     242 calls)
     ffts         :      0.51s CPU      0.51s WALL (      17 calls)
     fftw         :      5.24s CPU      5.25s WALL (     266 calls)


     PWSCF        :     23.91s CPU     24.19s WALL


   This run was terminated on:   4:11:24  28Feb2022            

=------------------------------------------------------------------------------=
   JOB DONE.
=------------------------------------------------------------------------------=
