
     Program PWSCF v.7.0 starts on 28Feb2022 at  3:28:44 

     This program is part of the open-source Quantum ESPRESSO suite
     for quantum simulation of materials; please cite
         "P. Giannozzi et al., J. Phys.:Condens. Matter 21 395502 (2009);
         "P. Giannozzi et al., J. Phys.:Condens. Matter 29 465901 (2017);
         "P. Giannozzi et al., J. Chem. Phys. 152 154105 (2020);
          URL http://www.quantum-espresso.org", 
     in publications or presentations arising from this work. More details at
     http://www.quantum-espresso.org/quote

     Serial version
     459 MiB available memory on the printing compute node when the environment starts

     Waiting for input...
     Reading input from standard input

     Current dimensions of program PWSCF are:
     Max number of different atomic species (ntypx) = 10
     Max number of k-points (npk) =  40000
     Max angular momentum in pseudopotentials (lmaxx) =  4

     File ./.update deleted, as requested

     File ./.bfgs deleted, as requested

    ============================================================
    |  pseudopotential report for atomic species:  1           |
    |        pseudo potential version   7   3   2              |
    ------------------------------------------------------------
    |  hydrogen            PBE                  exchange-corr  |
    |  z =   1.    zv( 1) =   1.    exfact =   5.00000         |
    |  ifpcor =  0           atomic energy =  -0.91772 Ry      |
    |  index    orbital      occupation    energy              |
    |    1        100           1.00       -0.48               |
    |  rinner =  0.5000                                        |
    |    new generation scheme:                                |
    |    nbeta =  1     kkbeta =  271     rcloc =    0.6000    |
    |    ibeta    l     epsilon   rcut                         |
    |      1       0      -0.48   0.80                         |
    ============================================================

     IMPORTANT: XC functional enforced from input :
     Exchange-correlation= BLYP
                           (   1   3   1   3   0   0   0)
     Any further DFT definition will be discarded
     Please, verify this is what you really want


     G-vector sticks info
     --------------------
     sticks:   dense  smooth     PW     G-vecs:    dense   smooth      PW
     Sum        7153    7153   1925               455863   455863   63461

     Using Slab Decomposition



     bravais-lattice index     =            1
     lattice parameter (alat)  =      30.0000  a.u.
     unit-cell volume          =   27000.0000 (a.u.)^3
     number of atoms/cell      =            2
     number of atomic types    =            1
     number of electrons       =         2.00
     number of Kohn-Sham states=            2
     kinetic-energy cutoff     =      25.0000  Ry
     charge density cutoff     =     100.0000  Ry
     scf convergence threshold =      1.0E-08
     mixing beta               =       0.7000
     number of iterations used =            8  plain     mixing
     energy convergence thresh.=      1.0E-04
     force convergence thresh. =      1.0E-03
     Exchange-correlation= BLYP
                           (   1   3   1   3   0   0   0)
     nstep                     =           50


     celldm(1)=  30.000000  celldm(2)=   0.000000  celldm(3)=   0.000000
     celldm(4)=   0.000000  celldm(5)=   0.000000  celldm(6)=   0.000000

     crystal axes: (cart. coord. in units of alat)
               a(1) = (   1.000000   0.000000   0.000000 )  
               a(2) = (   0.000000   1.000000   0.000000 )  
               a(3) = (   0.000000   0.000000   1.000000 )  

     reciprocal axes: (cart. coord. in units 2 pi/alat)
               b(1) = (  1.000000  0.000000  0.000000 )  
               b(2) = (  0.000000  1.000000  0.000000 )  
               b(3) = (  0.000000  0.000000  1.000000 )  


     PseudoPot. # 1 for hy read from file:
     /root/q-e/pseudo/H_US.van
     MD5 check sum: a9a9bfe98ff56cf4de197d71fc46bb44
     Pseudo is Ultrasoft, Zval =  1.0
     Generated by Vanderbilt code, v. 7.3.2
     Using radial grid of  399 points,  1 beta functions with: 
                l(1) =   0
     Q(r) pseudized with  8 coefficients,  rinner =    0.500

     atomic species   valence    mass     pseudopotential
        H              1.00     1.00784     hy( 1.00)

      8 Sym. Ops. (no inversion) found


                                    s                        frac. trans.

      isym =  1     identity                                     

 cryst.   s( 1) = (     1          0          0      )
                  (     0          1          0      )
                  (     0          0          1      )

 cart.    s( 1) = (  1.0000000  0.0000000  0.0000000 )
                  (  0.0000000  1.0000000  0.0000000 )
                  (  0.0000000  0.0000000  1.0000000 )


      isym =  2     180 deg rotation - cart. axis [1,0,0]        

 cryst.   s( 2) = (     1          0          0      )
                  (     0         -1          0      )
                  (     0          0         -1      )

 cart.    s( 2) = (  1.0000000  0.0000000  0.0000000 )
                  (  0.0000000 -1.0000000  0.0000000 )
                  (  0.0000000  0.0000000 -1.0000000 )


      isym =  3      90 deg rotation - cart. axis [-1,0,0]       

 cryst.   s( 3) = (     1          0          0      )
                  (     0          0         -1      )
                  (     0          1          0      )

 cart.    s( 3) = (  1.0000000  0.0000000  0.0000000 )
                  (  0.0000000  0.0000000  1.0000000 )
                  (  0.0000000 -1.0000000  0.0000000 )


      isym =  4      90 deg rotation - cart. axis [1,0,0]        

 cryst.   s( 4) = (     1          0          0      )
                  (     0          0          1      )
                  (     0         -1          0      )

 cart.    s( 4) = (  1.0000000  0.0000000  0.0000000 )
                  (  0.0000000  0.0000000 -1.0000000 )
                  (  0.0000000  1.0000000  0.0000000 )


      isym =  5     inv. 180 deg rotation - cart. axis [0,0,1]   

 cryst.   s( 5) = (     1          0          0      )
                  (     0          1          0      )
                  (     0          0         -1      )

 cart.    s( 5) = (  1.0000000  0.0000000  0.0000000 )
                  (  0.0000000  1.0000000  0.0000000 )
                  (  0.0000000  0.0000000 -1.0000000 )


      isym =  6     inv. 180 deg rotation - cart. axis [0,1,0]   

 cryst.   s( 6) = (     1          0          0      )
                  (     0         -1          0      )
                  (     0          0          1      )

 cart.    s( 6) = (  1.0000000  0.0000000  0.0000000 )
                  (  0.0000000 -1.0000000  0.0000000 )
                  (  0.0000000  0.0000000  1.0000000 )


      isym =  7     inv. 180 deg rotation - cart. axis [0,1,1]   

 cryst.   s( 7) = (     1          0          0      )
                  (     0          0         -1      )
                  (     0         -1          0      )

 cart.    s( 7) = (  1.0000000  0.0000000  0.0000000 )
                  (  0.0000000  0.0000000 -1.0000000 )
                  (  0.0000000 -1.0000000  0.0000000 )


      isym =  8     inv. 180 deg rotation - cart. axis [0,1,-1]  

 cryst.   s( 8) = (     1          0          0      )
                  (     0          0          1      )
                  (     0          1          0      )

 cart.    s( 8) = (  1.0000000  0.0000000  0.0000000 )
                  (  0.0000000  0.0000000  1.0000000 )
                  (  0.0000000  1.0000000  0.0000000 )


     point group C_4v (4mm) 
     there are  5 classes
     the character table:

       E     2C4   C2    2s_v  2s_d 
A_1    1.00  1.00  1.00  1.00  1.00
A_2    1.00  1.00  1.00 -1.00 -1.00
B_1    1.00 -1.00  1.00  1.00 -1.00
B_2    1.00 -1.00  1.00 -1.00  1.00
E      2.00  0.00 -2.00  0.00  0.00

     the symmetry operations in each class and the name of the first element:

     E        1
          identity                                               
     2C4      3    4
           90 deg rotation - cart. axis [-1,0,0]                 
     C2       2
          180 deg rotation - cart. axis [1,0,0]                  
     2s_v     5    6
          inv. 180 deg rotation - cart. axis [0,0,1]             
     2s_d     7    8
          inv. 180 deg rotation - cart. axis [0,1,1]             

   Cartesian axes

     site n.     atom                  positions (alat units)
         1           H   tau(   1) = (   0.0000000   0.0000000   0.0000000  )
         2           H   tau(   2) = (   0.0440936   0.0000000   0.0000000  )

   Crystallographic axes

     site n.     atom                  positions (cryst. coord.)
         1           H   tau(   1) = (  0.0000000  0.0000000  0.0000000  )
         2           H   tau(   2) = (  0.0440936  0.0000000  0.0000000  )

     number of k points=     1
                       cart. coord. in units 2pi/alat
        k(    1) = (  -0.5000000  -0.5000000  -0.5000000), wk =   2.0000000

                       cryst. coord.
        k(    1) = (  -0.5000000  -0.5000000  -0.5000000), wk =   2.0000000

     Dense  grid:   455863 G-vectors     FFT dimensions: (  96,  96,  96)

     Dynamical RAM for                 wfc:       1.74 MB

     Dynamical RAM for     wfc (w. buffer):       1.74 MB

     Dynamical RAM for           str. fact:       6.96 MB

     Dynamical RAM for           local pot:       0.00 MB

     Dynamical RAM for          nlocal pot:       1.74 MB

     Dynamical RAM for                qrad:       0.01 MB

     Dynamical RAM for          rho,v,vnew:      41.12 MB

     Dynamical RAM for               rhoin:      13.71 MB

     Dynamical RAM for            rho*nmix:     111.29 MB

     Dynamical RAM for           G-vectors:      29.56 MB

     Dynamical RAM for          h,s,v(r/c):       0.00 MB

     Dynamical RAM for          <psi|beta>:       0.00 MB

     Dynamical RAM for                 psi:       3.48 MB

     Dynamical RAM for                hpsi:       3.48 MB

     Dynamical RAM for                spsi:       3.48 MB

     Dynamical RAM for      wfcinit/wfcrot:       3.48 MB

     Dynamical RAM for           addusdens:      41.74 MB

     Dynamical RAM for          addusforce:      59.13 MB

     Estimated static dynamical RAM per process >     142.49 MB

     Estimated max dynamical RAM per process >     312.91 MB

     Initial potential from superposition of free atoms

     starting charge       2.0000, renormalised to       2.0000

     negative rho (up, down):  3.037E-02 0.000E+00
     Starting wfcs are    2 randomized atomic wfcs

     total cpu time spent up to now is        0.8 secs

     Self-consistent Calculation

     iteration #  1     ecut=    25.00 Ry     beta= 0.70
     Davidson diagonalization with overlap

---- Real-time Memory Report at c_bands before calling an iterative solver
           247 MiB given to the printing process from OS
             0 MiB allocation reported by mallinfo(arena+hblkhd)
           288 MiB available memory on the node where the printing process lives
------------------
     ethr =  1.00E-02,  avg # of iterations =  5.0

     negative rho (up, down):  4.449E-02 0.000E+00

     total cpu time spent up to now is        1.7 secs

     total energy              =      -2.30430547 Ry
     estimated scf accuracy    <       0.13458861 Ry

     iteration #  2     ecut=    25.00 Ry     beta= 0.70
     Davidson diagonalization with overlap

---- Real-time Memory Report at c_bands before calling an iterative solver
           309 MiB given to the printing process from OS
             0 MiB allocation reported by mallinfo(arena+hblkhd)
           162 MiB available memory on the node where the printing process lives
------------------
     ethr =  6.73E-03,  avg # of iterations =  1.0

     negative rho (up, down):  4.750E-02 0.000E+00

     total cpu time spent up to now is        2.5 secs

     total energy              =      -2.31210545 Ry
     estimated scf accuracy    <       0.00135357 Ry

     iteration #  3     ecut=    25.00 Ry     beta= 0.70
     Davidson diagonalization with overlap

---- Real-time Memory Report at c_bands before calling an iterative solver
           323 MiB given to the printing process from OS
             0 MiB allocation reported by mallinfo(arena+hblkhd)
           148 MiB available memory on the node where the printing process lives
------------------
     ethr =  6.77E-05,  avg # of iterations =  8.0

     negative rho (up, down):  4.738E-02 0.000E+00

     total cpu time spent up to now is        3.7 secs

     total energy              =      -2.31260608 Ry
     estimated scf accuracy    <       0.00001479 Ry

     iteration #  4     ecut=    25.00 Ry     beta= 0.70
     Davidson diagonalization with overlap

---- Real-time Memory Report at c_bands before calling an iterative solver
           337 MiB given to the printing process from OS
             0 MiB allocation reported by mallinfo(arena+hblkhd)
           135 MiB available memory on the node where the printing process lives
------------------
     ethr =  7.39E-07,  avg # of iterations =  5.0

     negative rho (up, down):  4.741E-02 0.000E+00

     total cpu time spent up to now is        4.6 secs

     total energy              =      -2.31258294 Ry
     estimated scf accuracy    <       0.00000025 Ry

     iteration #  5     ecut=    25.00 Ry     beta= 0.70
     Davidson diagonalization with overlap

---- Real-time Memory Report at c_bands before calling an iterative solver
           351 MiB given to the printing process from OS
             0 MiB allocation reported by mallinfo(arena+hblkhd)
           121 MiB available memory on the node where the printing process lives
------------------
     ethr =  1.26E-08,  avg # of iterations =  2.0

     negative rho (up, down):  4.741E-02 0.000E+00

     total cpu time spent up to now is        5.4 secs

     End of self-consistent calculation

          k =-0.5000-0.5000-0.5000 ( 57016 PWs)   bands (ev):

   -10.6418  -1.1099

     occupation numbers 
     1.0000   0.0000

     highest occupied, lowest unoccupied level (ev):   -10.6418   -1.1099

!    total energy              =      -2.31258052 Ry
     estimated scf accuracy    <          6.9E-09 Ry

     The total energy is the sum of the following terms:
     one-electron contribution =      -4.33864848 Ry
     hartree contribution      =       2.30816285 Ry
     xc contribution           =      -1.41599568 Ry
     ewald contribution        =       1.13390079 Ry

     convergence has been achieved in   5 iterations

     Forces acting on atoms (cartesian axes, Ry/au):

     atom    1 type  1   force =    -0.08871209    0.00000000    0.00000000
     atom    2 type  1   force =     0.08871209    0.00000000    0.00000000
     The non-local contrib.  to forces
     atom    1 type  1   force =     0.11051803    0.00000000    0.00000000
     atom    2 type  1   force =    -0.10694111    0.00000000    0.00000000
     The ionic contribution  to forces
     atom    1 type  1   force =    -1.14256074    0.00000000   -0.00000000
     atom    2 type  1   force =     1.14256074   -0.00000000   -0.00000000
     The local contribution  to forces
     atom    1 type  1   force =     0.94519679    0.00000000    0.00000000
     atom    2 type  1   force =    -0.94509355    0.00000000    0.00000000
     The core correction contribution to forces
     atom    1 type  1   force =     0.00000000    0.00000000    0.00000000
     atom    2 type  1   force =     0.00000000    0.00000000    0.00000000
     The Hubbard contrib.    to forces
     atom    1 type  1   force =     0.00000000    0.00000000    0.00000000
     atom    2 type  1   force =     0.00000000    0.00000000    0.00000000
     The SCF correction term to forces
     atom    1 type  1   force =    -0.00005009    0.00000000   -0.00000000
     atom    2 type  1   force =     0.00000208   -0.00000000    0.00000000

     Total force =     0.125458     Total SCF correction =     0.000050

     BFGS Geometry Optimization
     Energy error            =      0.0E+00 Ry
     Gradient error          =      8.9E-02 Ry/Bohr

     number of scf cycles    =   1
     number of bfgs steps    =   0

     energy             new  =      -2.3125805220 Ry

     new trust radius        =       0.0887120911 bohr
     new conv_thr            =       0.0000000100 Ry


ATOMIC_POSITIONS (angstrom)
H            -0.0469444170        0.0000000000        0.0000000000
H             0.7469444170        0.0000000000        0.0000000000



     Writing config-only to output data dir ./.save/
     NEW-OLD atomic charge density approx. for the potential

     negative rho (up, down):  4.637E-02 0.000E+00

     total cpu time spent up to now is        6.4 secs

     Self-consistent Calculation

     iteration #  1     ecut=    25.00 Ry     beta= 0.70
     Davidson diagonalization with overlap

---- Real-time Memory Report at c_bands before calling an iterative solver
           358 MiB given to the printing process from OS
             0 MiB allocation reported by mallinfo(arena+hblkhd)
           277 MiB available memory on the node where the printing process lives
------------------
     ethr =  1.00E-06,  avg # of iterations =  7.0

     negative rho (up, down):  4.293E-02 0.000E+00

     total cpu time spent up to now is        7.6 secs

     total energy              =      -2.31607397 Ry
     estimated scf accuracy    <       0.00257855 Ry

     iteration #  2     ecut=    25.00 Ry     beta= 0.70
     Davidson diagonalization with overlap

---- Real-time Memory Report at c_bands before calling an iterative solver
           358 MiB given to the printing process from OS
             0 MiB allocation reported by mallinfo(arena+hblkhd)
           150 MiB available memory on the node where the printing process lives
------------------
     ethr =  1.29E-04,  avg # of iterations =  2.0

     negative rho (up, down):  4.245E-02 0.000E+00

     total cpu time spent up to now is        8.6 secs

     total energy              =      -2.31671153 Ry
     estimated scf accuracy    <       0.00002769 Ry

     iteration #  3     ecut=    25.00 Ry     beta= 0.70
     Davidson diagonalization with overlap

---- Real-time Memory Report at c_bands before calling an iterative solver
           358 MiB given to the printing process from OS
             0 MiB allocation reported by mallinfo(arena+hblkhd)
           136 MiB available memory on the node where the printing process lives
------------------
     ethr =  1.38E-06,  avg # of iterations =  4.0

     negative rho (up, down):  4.235E-02 0.000E+00

     total cpu time spent up to now is        9.4 secs

     total energy              =      -2.31678769 Ry
     estimated scf accuracy    <       0.00000164 Ry

     iteration #  4     ecut=    25.00 Ry     beta= 0.70
     Davidson diagonalization with overlap

---- Real-time Memory Report at c_bands before calling an iterative solver
           358 MiB given to the printing process from OS
             0 MiB allocation reported by mallinfo(arena+hblkhd)
           122 MiB available memory on the node where the printing process lives
------------------
     ethr =  8.18E-08,  avg # of iterations =  2.0

     negative rho (up, down):  4.236E-02 0.000E+00

     total cpu time spent up to now is       10.2 secs

     End of self-consistent calculation

          k =-0.5000-0.5000-0.5000 ( 57016 PWs)   bands (ev):

   -10.1734  -1.0486

     occupation numbers 
     1.0000   0.0000

     highest occupied, lowest unoccupied level (ev):   -10.1734   -1.0486

!    total energy              =      -2.31678682 Ry
     estimated scf accuracy    <          9.7E-09 Ry

     The total energy is the sum of the following terms:
     one-electron contribution =      -4.09680880 Ry
     hartree contribution      =       2.18131841 Ry
     xc contribution           =      -1.35646728 Ry
     ewald contribution        =       0.95517084 Ry

     convergence has been achieved in   4 iterations

     Forces acting on atoms (cartesian axes, Ry/au):

     atom    1 type  1   force =     0.06507429    0.00000000    0.00000000
     atom    2 type  1   force =    -0.06507429    0.00000000    0.00000000
     The non-local contrib.  to forces
     atom    1 type  1   force =     0.10527034    0.00000000    0.00000000
     atom    2 type  1   force =    -0.10523127    0.00000000    0.00000000
     The ionic contribution  to forces
     atom    1 type  1   force =    -0.88814448   -0.00000000   -0.00000000
     atom    2 type  1   force =     0.88814448   -0.00000000   -0.00000000
     The local contribution  to forces
     atom    1 type  1   force =     0.84802092    0.00000000    0.00000000
     atom    2 type  1   force =    -0.84787098    0.00000000    0.00000000
     The core correction contribution to forces
     atom    1 type  1   force =     0.00000000    0.00000000    0.00000000
     atom    2 type  1   force =     0.00000000    0.00000000    0.00000000
     The Hubbard contrib.    to forces
     atom    1 type  1   force =     0.00000000    0.00000000    0.00000000
     atom    2 type  1   force =     0.00000000    0.00000000    0.00000000
     The SCF correction term to forces
     atom    1 type  1   force =     0.00005742   -0.00000000    0.00000000
     atom    2 type  1   force =     0.00001338   -0.00000000    0.00000000

     Total force =     0.092029     Total SCF correction =     0.000059
     Energy error            =      4.2E-03 Ry
     Gradient error          =      6.5E-02 Ry/Bohr

     number of scf cycles    =   2
     number of bfgs steps    =   1

     energy             old  =      -2.3125805220 Ry
     energy             new  =      -2.3167868187 Ry

     CASE: energy            _new < energy            _old

     new trust radius        =       0.0375382806 bohr
     new conv_thr            =       0.0000000042 Ry


ATOMIC_POSITIONS (angstrom)
H            -0.0270800143        0.0000000000        0.0000000000
H             0.7270800143        0.0000000000        0.0000000000



     Writing config-only to output data dir ./.save/
     NEW-OLD atomic charge density approx. for the potential

     negative rho (up, down):  4.267E-02 0.000E+00

     total cpu time spent up to now is       11.1 secs

     Self-consistent Calculation

     iteration #  1     ecut=    25.00 Ry     beta= 0.70
     Davidson diagonalization with overlap

---- Real-time Memory Report at c_bands before calling an iterative solver
           358 MiB given to the printing process from OS
             0 MiB allocation reported by mallinfo(arena+hblkhd)
           275 MiB available memory on the node where the printing process lives
------------------
     ethr =  1.00E-06,  avg # of iterations =  7.0

     negative rho (up, down):  4.448E-02 0.000E+00

     total cpu time spent up to now is       12.2 secs

     total energy              =      -2.31826032 Ry
     estimated scf accuracy    <       0.00042654 Ry

     iteration #  2     ecut=    25.00 Ry     beta= 0.70
     Davidson diagonalization with overlap

---- Real-time Memory Report at c_bands before calling an iterative solver
           358 MiB given to the printing process from OS
             0 MiB allocation reported by mallinfo(arena+hblkhd)
           150 MiB available memory on the node where the printing process lives
------------------
     ethr =  2.13E-05,  avg # of iterations =  1.0

     negative rho (up, down):  4.489E-02 0.000E+00

     total cpu time spent up to now is       13.0 secs

     total energy              =      -2.31801666 Ry
     estimated scf accuracy    <       0.00000454 Ry

     iteration #  3     ecut=    25.00 Ry     beta= 0.70
     Davidson diagonalization with overlap

---- Real-time Memory Report at c_bands before calling an iterative solver
           358 MiB given to the printing process from OS
             0 MiB allocation reported by mallinfo(arena+hblkhd)
           136 MiB available memory on the node where the printing process lives
------------------
     ethr =  2.27E-07,  avg # of iterations =  2.0

     negative rho (up, down):  4.496E-02 0.000E+00

     total cpu time spent up to now is       13.9 secs

     total energy              =      -2.31795971 Ry
     estimated scf accuracy    <       0.00000022 Ry

     iteration #  4     ecut=    25.00 Ry     beta= 0.70
     Davidson diagonalization with overlap

---- Real-time Memory Report at c_bands before calling an iterative solver
           358 MiB given to the printing process from OS
             0 MiB allocation reported by mallinfo(arena+hblkhd)
           122 MiB available memory on the node where the printing process lives
------------------
     ethr =  1.10E-08,  avg # of iterations =  2.0

     negative rho (up, down):  4.497E-02 0.000E+00

     total cpu time spent up to now is       14.7 secs

     total energy              =      -2.31795516 Ry
     estimated scf accuracy    <          9.1E-09 Ry

     iteration #  5     ecut=    25.00 Ry     beta= 0.70
     Davidson diagonalization with overlap

---- Real-time Memory Report at c_bands before calling an iterative solver
           359 MiB given to the printing process from OS
             0 MiB allocation reported by mallinfo(arena+hblkhd)
           108 MiB available memory on the node where the printing process lives
------------------
     ethr =  4.57E-10,  avg # of iterations =  3.0

     negative rho (up, down):  4.497E-02 0.000E+00

     total cpu time spent up to now is       15.5 secs

     End of self-consistent calculation

          k =-0.5000-0.5000-0.5000 ( 57016 PWs)   bands (ev):

   -10.3633  -1.0985

     occupation numbers 
     1.0000   0.0000

     highest occupied, lowest unoccupied level (ev):   -10.3633   -1.0985

!    total energy              =      -2.31795164 Ry
     estimated scf accuracy    <          3.1E-10 Ry

     The total energy is the sum of the following terms:
     one-electron contribution =      -4.19612314 Ry
     hartree contribution      =       2.23374865 Ry
     xc contribution           =      -1.38094218 Ry
     ewald contribution        =       1.02536504 Ry

     convergence has been achieved in   5 iterations

     Forces acting on atoms (cartesian axes, Ry/au):

     atom    1 type  1   force =     0.01107637    0.00000000    0.00000000
     atom    2 type  1   force =    -0.01107637    0.00000000    0.00000000
     The non-local contrib.  to forces
     atom    1 type  1   force =     0.10738627    0.00000000    0.00000000
     atom    2 type  1   force =    -0.10645652    0.00000000    0.00000000
     The ionic contribution  to forces
     atom    1 type  1   force =    -0.98425779   -0.00000000   -0.00000000
     atom    2 type  1   force =     0.98425779   -0.00000000   -0.00000000
     The local contribution  to forces
     atom    1 type  1   force =     0.88856899    0.00000000    0.00000000
     atom    2 type  1   force =    -0.88836411    0.00000000    0.00000000
     The core correction contribution to forces
     atom    1 type  1   force =     0.00000000    0.00000000    0.00000000
     atom    2 type  1   force =     0.00000000    0.00000000    0.00000000
     The Hubbard contrib.    to forces
     atom    1 type  1   force =     0.00000000    0.00000000    0.00000000
     atom    2 type  1   force =     0.00000000    0.00000000    0.00000000
     The SCF correction term to forces
     atom    1 type  1   force =    -0.00002587   -0.00000000   -0.00000000
     atom    2 type  1   force =     0.00008171    0.00000000    0.00000000

     Total force =     0.015664     Total SCF correction =     0.000086
     Energy error            =      1.2E-03 Ry
     Gradient error          =      1.1E-02 Ry/Bohr

     number of scf cycles    =   3
     number of bfgs steps    =   2

     energy             old  =      -2.3167868187 Ry
     energy             new  =      -2.3179516422 Ry

     CASE: energy            _new < energy            _old

     new trust radius        =       0.0077000696 bohr
     new conv_thr            =       0.0000000011 Ry


ATOMIC_POSITIONS (angstrom)
H            -0.0230053130        0.0000000000        0.0000000000
H             0.7230053130        0.0000000000        0.0000000000



     Writing config-only to output data dir ./.save/
     NEW-OLD atomic charge density approx. for the potential

     negative rho (up, down):  4.498E-02 0.000E+00

     total cpu time spent up to now is       16.6 secs

     Self-consistent Calculation

     iteration #  1     ecut=    25.00 Ry     beta= 0.70
     Davidson diagonalization with overlap

---- Real-time Memory Report at c_bands before calling an iterative solver
           359 MiB given to the printing process from OS
             0 MiB allocation reported by mallinfo(arena+hblkhd)
           262 MiB available memory on the node where the printing process lives
------------------
     ethr =  1.00E-06,  avg # of iterations =  3.0

     negative rho (up, down):  4.533E-02 0.000E+00

     total cpu time spent up to now is       17.6 secs

     total energy              =      -2.31774279 Ry
     estimated scf accuracy    <       0.00001857 Ry

     iteration #  2     ecut=    25.00 Ry     beta= 0.70
     Davidson diagonalization with overlap

---- Real-time Memory Report at c_bands before calling an iterative solver
           359 MiB given to the printing process from OS
             0 MiB allocation reported by mallinfo(arena+hblkhd)
           124 MiB available memory on the node where the printing process lives
------------------
     ethr =  9.29E-07,  avg # of iterations =  1.0

     negative rho (up, down):  4.541E-02 0.000E+00

     total cpu time spent up to now is       18.4 secs

     total energy              =      -2.31768644 Ry
     estimated scf accuracy    <       0.00000026 Ry

     iteration #  3     ecut=    25.00 Ry     beta= 0.70
     Davidson diagonalization with overlap

---- Real-time Memory Report at c_bands before calling an iterative solver
           359 MiB given to the printing process from OS
             0 MiB allocation reported by mallinfo(arena+hblkhd)
           133 MiB available memory on the node where the printing process lives
------------------
     ethr =  1.30E-08,  avg # of iterations =  2.0

     negative rho (up, down):  4.541E-02 0.000E+00

     total cpu time spent up to now is       19.3 secs

     total energy              =      -2.31768427 Ry
     estimated scf accuracy    <       0.00000001 Ry

     iteration #  4     ecut=    25.00 Ry     beta= 0.70
     Davidson diagonalization with overlap

---- Real-time Memory Report at c_bands before calling an iterative solver
           359 MiB given to the printing process from OS
             0 MiB allocation reported by mallinfo(arena+hblkhd)
           118 MiB available memory on the node where the printing process lives
------------------
     ethr =  7.30E-10,  avg # of iterations =  3.0

     negative rho (up, down):  4.541E-02 0.000E+00

     total cpu time spent up to now is       20.3 secs

     total energy              =      -2.31768348 Ry
     estimated scf accuracy    <          1.2E-09 Ry

     iteration #  5     ecut=    25.00 Ry     beta= 0.70
     Davidson diagonalization with overlap

---- Real-time Memory Report at c_bands before calling an iterative solver
           359 MiB given to the printing process from OS
             0 MiB allocation reported by mallinfo(arena+hblkhd)
           126 MiB available memory on the node where the printing process lives
------------------
     ethr =  5.86E-11,  avg # of iterations =  3.0

     negative rho (up, down):  4.541E-02 0.000E+00

     total cpu time spent up to now is       21.1 secs

     End of self-consistent calculation

          k =-0.5000-0.5000-0.5000 ( 57016 PWs)   bands (ev):

   -10.4048  -1.1074

     occupation numbers 
     1.0000   0.0000

     highest occupied, lowest unoccupied level (ev):   -10.4048   -1.1074

!    total energy              =      -2.31768849 Ry
     estimated scf accuracy    <          9.0E-11 Ry

     The total energy is the sum of the following terms:
     one-electron contribution =      -4.21696572 Ry
     hartree contribution      =       2.24460219 Ry
     xc contribution           =      -1.38601339 Ry
     ewald contribution        =       1.04068844 Ry

     convergence has been achieved in   5 iterations

     Forces acting on atoms (cartesian axes, Ry/au):

     atom    1 type  1   force =    -0.00188948    0.00000000    0.00000000
     atom    2 type  1   force =     0.00188948    0.00000000    0.00000000
     The non-local contrib.  to forces
     atom    1 type  1   force =     0.10785921    0.00000000    0.00000000
     atom    2 type  1   force =    -0.10637107    0.00000000    0.00000000
     The ionic contribution  to forces
     atom    1 type  1   force =    -1.00589392    0.00000000   -0.00000000
     atom    2 type  1   force =     1.00589392    0.00000000   -0.00000000
     The local contribution  to forces
     atom    1 type  1   force =     0.89700944    0.00000000    0.00000000
     atom    2 type  1   force =    -0.89676567    0.00000000    0.00000000
     The core correction contribution to forces
     atom    1 type  1   force =     0.00000000    0.00000000    0.00000000
     atom    2 type  1   force =     0.00000000    0.00000000    0.00000000
     The Hubbard contrib.    to forces
     atom    1 type  1   force =     0.00000000    0.00000000    0.00000000
     atom    2 type  1   force =     0.00000000    0.00000000    0.00000000
     The SCF correction term to forces
     atom    1 type  1   force =    -0.00000651   -0.00000000   -0.00000000
     atom    2 type  1   force =    -0.00001001    0.00000000   -0.00000000

     Total force =     0.002672     Total SCF correction =     0.000012
     Energy error            =      2.6E-04 Ry
     Gradient error          =      1.9E-03 Ry/Bohr

     number of scf cycles    =   4
     number of bfgs steps    =   3

     energy             old  =      -2.3179516422 Ry
     energy             new  =      -2.3176884856 Ry

     CASE: energy            _new > energy            _old

     new trust radius        =       0.0015141293 bohr
     new conv_thr            =       0.0000000011 Ry


ATOMIC_POSITIONS (angstrom)
H            -0.0262787716        0.0000000000        0.0000000000
H             0.7262787716        0.0000000000        0.0000000000



     Writing config-only to output data dir ./.save/
     NEW-OLD atomic charge density approx. for the potential

     negative rho (up, down):  4.539E-02 0.000E+00

     total cpu time spent up to now is       22.1 secs

     Self-consistent Calculation

     iteration #  1     ecut=    25.00 Ry     beta= 0.70
     Davidson diagonalization with overlap

---- Real-time Memory Report at c_bands before calling an iterative solver
           359 MiB given to the printing process from OS
             0 MiB allocation reported by mallinfo(arena+hblkhd)
           291 MiB available memory on the node where the printing process lives
------------------
     ethr =  1.00E-06,  avg # of iterations =  2.0

     negative rho (up, down):  4.513E-02 0.000E+00

     total cpu time spent up to now is       23.0 secs

     total energy              =      -2.31787555 Ry
     estimated scf accuracy    <       0.00001133 Ry

     iteration #  2     ecut=    25.00 Ry     beta= 0.70
     Davidson diagonalization with overlap

---- Real-time Memory Report at c_bands before calling an iterative solver
           359 MiB given to the printing process from OS
             0 MiB allocation reported by mallinfo(arena+hblkhd)
           166 MiB available memory on the node where the printing process lives
------------------
     ethr =  5.66E-07,  avg # of iterations =  1.0

     negative rho (up, down):  4.506E-02 0.000E+00

     total cpu time spent up to now is       23.8 secs

     total energy              =      -2.31791566 Ry
     estimated scf accuracy    <       0.00000026 Ry

     iteration #  3     ecut=    25.00 Ry     beta= 0.70
     Davidson diagonalization with overlap

---- Real-time Memory Report at c_bands before calling an iterative solver
           359 MiB given to the printing process from OS
             0 MiB allocation reported by mallinfo(arena+hblkhd)
           152 MiB available memory on the node where the printing process lives
------------------
     ethr =  1.32E-08,  avg # of iterations =  2.0

     negative rho (up, down):  4.505E-02 0.000E+00

     total cpu time spent up to now is       24.7 secs

     total energy              =      -2.31791913 Ry
     estimated scf accuracy    <       0.00000001 Ry

     iteration #  4     ecut=    25.00 Ry     beta= 0.70
     Davidson diagonalization with overlap

---- Real-time Memory Report at c_bands before calling an iterative solver
           359 MiB given to the printing process from OS
             0 MiB allocation reported by mallinfo(arena+hblkhd)
           138 MiB available memory on the node where the printing process lives
------------------
     ethr =  6.98E-10,  avg # of iterations =  3.0

     negative rho (up, down):  4.505E-02 0.000E+00

     total cpu time spent up to now is       25.7 secs

     total energy              =      -2.31792695 Ry
     estimated scf accuracy    <          3.6E-09 Ry

     iteration #  5     ecut=    25.00 Ry     beta= 0.70
     Davidson diagonalization with overlap

---- Real-time Memory Report at c_bands before calling an iterative solver
           359 MiB given to the printing process from OS
             0 MiB allocation reported by mallinfo(arena+hblkhd)
           124 MiB available memory on the node where the printing process lives
------------------
     ethr =  1.78E-10,  avg # of iterations =  3.0

     negative rho (up, down):  4.506E-02 0.000E+00

     total cpu time spent up to now is       26.7 secs

     End of self-consistent calculation

          k =-0.5000-0.5000-0.5000 ( 57016 PWs)   bands (ev):

   -10.3715  -1.1009

     occupation numbers 
     1.0000   0.0000

     highest occupied, lowest unoccupied level (ev):   -10.3715   -1.1009

!    total energy              =      -2.31791561 Ry
     estimated scf accuracy    <          2.9E-10 Ry

     The total energy is the sum of the following terms:
     one-electron contribution =      -4.20022001 Ry
     hartree contribution      =       2.23590140 Ry
     xc contribution           =      -1.38194896 Ry
     ewald contribution        =       1.02835197 Ry

     convergence has been achieved in   5 iterations

     Forces acting on atoms (cartesian axes, Ry/au):

     atom    1 type  1   force =     0.00862385    0.00000000    0.00000000
     atom    2 type  1   force =    -0.00862385    0.00000000    0.00000000
     The non-local contrib.  to forces
     atom    1 type  1   force =     0.10749816    0.00000000    0.00000000
     atom    2 type  1   force =    -0.10643400    0.00000000    0.00000000
     The ionic contribution  to forces
     atom    1 type  1   force =    -0.98845684   -0.00000000   -0.00000000
     atom    2 type  1   force =     0.98845684    0.00000000   -0.00000000
     The local contribution  to forces
     atom    1 type  1   force =     0.89023572    0.00000000    0.00000000
     atom    2 type  1   force =    -0.89001446    0.00000000    0.00000000
     The core correction contribution to forces
     atom    1 type  1   force =     0.00000000    0.00000000    0.00000000
     atom    2 type  1   force =     0.00000000    0.00000000    0.00000000
     The Hubbard contrib.    to forces
     atom    1 type  1   force =     0.00000000    0.00000000    0.00000000
     atom    2 type  1   force =     0.00000000    0.00000000    0.00000000
     The SCF correction term to forces
     atom    1 type  1   force =    -0.00006628    0.00000000    0.00000000
     atom    2 type  1   force =    -0.00004530    0.00000000   -0.00000000

     Total force =     0.012196     Total SCF correction =     0.000080
     Energy error            =      3.6E-05 Ry
     Gradient error          =      8.6E-03 Ry/Bohr

     number of scf cycles    =   5
     number of bfgs steps    =   3

     energy             old  =      -2.3179516422 Ry
     energy             new  =      -2.3179156064 Ry

     CASE: energy            _new > energy            _old

     new trust radius        =       0.0003649655 bohr
     new conv_thr            =       0.0000000011 Ry


ATOMIC_POSITIONS (angstrom)
H            -0.0268868829        0.0000000000        0.0000000000
H             0.7268868829        0.0000000000        0.0000000000



     Writing config-only to output data dir ./.save/
     NEW-OLD atomic charge density approx. for the potential

     negative rho (up, down):  4.505E-02 0.000E+00

     total cpu time spent up to now is       27.5 secs

     Self-consistent Calculation

     iteration #  1     ecut=    25.00 Ry     beta= 0.70
     Davidson diagonalization with overlap

---- Real-time Memory Report at c_bands before calling an iterative solver
           359 MiB given to the printing process from OS
             0 MiB allocation reported by mallinfo(arena+hblkhd)
           291 MiB available memory on the node where the printing process lives
------------------
     ethr =  1.00E-06,  avg # of iterations =  2.0

     Threshold (ethr) on eigenvalues was too large:
     Diagonalizing with lowered threshold

     Davidson diagonalization with overlap

---- Real-time Memory Report at c_bands before calling an iterative solver
           359 MiB given to the printing process from OS
             0 MiB allocation reported by mallinfo(arena+hblkhd)
           292 MiB available memory on the node where the printing process lives
------------------
     ethr =  1.99E-08,  avg # of iterations =  1.0

     negative rho (up, down):  4.500E-02 0.000E+00

     total cpu time spent up to now is       28.8 secs

     total energy              =      -2.31794485 Ry
     estimated scf accuracy    <       0.00000044 Ry

     iteration #  2     ecut=    25.00 Ry     beta= 0.70
     Davidson diagonalization with overlap

---- Real-time Memory Report at c_bands before calling an iterative solver
           359 MiB given to the printing process from OS
             0 MiB allocation reported by mallinfo(arena+hblkhd)
           166 MiB available memory on the node where the printing process lives
------------------
     ethr =  2.20E-08,  avg # of iterations =  2.0

     negative rho (up, down):  4.499E-02 0.000E+00

     total cpu time spent up to now is       29.8 secs

     total energy              =      -2.31794185 Ry
     estimated scf accuracy    <          4.4E-09 Ry

     iteration #  3     ecut=    25.00 Ry     beta= 0.70
     Davidson diagonalization with overlap

---- Real-time Memory Report at c_bands before calling an iterative solver
           359 MiB given to the printing process from OS
             0 MiB allocation reported by mallinfo(arena+hblkhd)
           152 MiB available memory on the node where the printing process lives
------------------
     ethr =  2.21E-10,  avg # of iterations =  3.0

     negative rho (up, down):  4.498E-02 0.000E+00

     total cpu time spent up to now is       30.6 secs

     total energy              =      -2.31795148 Ry
     estimated scf accuracy    <          1.3E-09 Ry

     iteration #  4     ecut=    25.00 Ry     beta= 0.70
     Davidson diagonalization with overlap

---- Real-time Memory Report at c_bands before calling an iterative solver
           359 MiB given to the printing process from OS
             0 MiB allocation reported by mallinfo(arena+hblkhd)
           138 MiB available memory on the node where the printing process lives
------------------
     ethr =  6.51E-11,  avg # of iterations =  4.0

     negative rho (up, down):  4.499E-02 0.000E+00

     total cpu time spent up to now is       31.6 secs

     total energy              =      -2.31795136 Ry
     estimated scf accuracy    <          1.3E-09 Ry

     iteration #  5     ecut=    25.00 Ry     beta= 0.70
     Davidson diagonalization with overlap

---- Real-time Memory Report at c_bands before calling an iterative solver
           359 MiB given to the printing process from OS
             0 MiB allocation reported by mallinfo(arena+hblkhd)
           124 MiB available memory on the node where the printing process lives
------------------
     ethr =  6.39E-11,  avg # of iterations =  3.0

     negative rho (up, down):  4.499E-02 0.000E+00

     total cpu time spent up to now is       32.4 secs

     End of self-consistent calculation

          k =-0.5000-0.5000-0.5000 ( 57016 PWs)   bands (ev):

   -10.3654  -1.1001

     occupation numbers 
     1.0000   0.0000

     highest occupied, lowest unoccupied level (ev):   -10.3654   -1.1001

!    total energy              =      -2.31794055 Ry
     estimated scf accuracy    <          5.4E-10 Ry

     The total energy is the sum of the following terms:
     one-electron contribution =      -4.19712448 Ry
     hartree contribution      =       2.23429551 Ry
     xc contribution           =      -1.38119542 Ry
     ewald contribution        =       1.02608384 Ry

     convergence has been achieved in   5 iterations

     Forces acting on atoms (cartesian axes, Ry/au):

     atom    1 type  1   force =     0.01065472    0.00000000    0.00000000
     atom    2 type  1   force =    -0.01065472    0.00000000    0.00000000
     The non-local contrib.  to forces
     atom    1 type  1   force =     0.10742256    0.00000000    0.00000000
     atom    2 type  1   force =    -0.10657457    0.00000000    0.00000000
     The ionic contribution  to forces
     atom    1 type  1   force =    -0.98526748   -0.00000000   -0.00000000
     atom    2 type  1   force =     0.98526748    0.00000000   -0.00000000
     The local contribution  to forces
     atom    1 type  1   force =     0.88899459    0.00000000    0.00000000
     atom    2 type  1   force =    -0.88875695    0.00000000    0.00000000
     The core correction contribution to forces
     atom    1 type  1   force =     0.00000000    0.00000000    0.00000000
     atom    2 type  1   force =     0.00000000    0.00000000    0.00000000
     The Hubbard contrib.    to forces
     atom    1 type  1   force =     0.00000000    0.00000000    0.00000000
     atom    2 type  1   force =     0.00000000    0.00000000    0.00000000
     The SCF correction term to forces
     atom    1 type  1   force =    -0.00007051   -0.00000000    0.00000000
     atom    2 type  1   force =    -0.00016625    0.00000000    0.00000000

     Total force =     0.015068     Total SCF correction =     0.000181
     Energy error            =      1.1E-05 Ry
     Gradient error          =      1.1E-02 Ry/Bohr

     number of scf cycles    =   6
     number of bfgs steps    =   3

     energy             old  =      -2.3179516422 Ry
     energy             new  =      -2.3179405476 Ry

     CASE: energy            _new > energy            _old

     new trust radius        =       0.0000769239 bohr

     trust_radius < trust_radius_min

     resetting bfgs history

     new conv_thr            =       0.0000000011 Ry


ATOMIC_POSITIONS (angstrom)
H            -0.0212186535        0.0000000000        0.0000000000
H             0.7212186535        0.0000000000        0.0000000000



     Writing config-only to output data dir ./.save/
     NEW-OLD atomic charge density approx. for the potential

     negative rho (up, down):  4.499E-02 0.000E+00

     total cpu time spent up to now is       33.2 secs

     Self-consistent Calculation

     iteration #  1     ecut=    25.00 Ry     beta= 0.70
     Davidson diagonalization with overlap

---- Real-time Memory Report at c_bands before calling an iterative solver
           359 MiB given to the printing process from OS
             0 MiB allocation reported by mallinfo(arena+hblkhd)
           291 MiB available memory on the node where the printing process lives
------------------
     ethr =  1.00E-06,  avg # of iterations =  3.0

     negative rho (up, down):  4.548E-02 0.000E+00

     total cpu time spent up to now is       34.4 secs

     total energy              =      -2.31760398 Ry
     estimated scf accuracy    <       0.00003603 Ry

     iteration #  2     ecut=    25.00 Ry     beta= 0.70
     Davidson diagonalization with overlap

---- Real-time Memory Report at c_bands before calling an iterative solver
           359 MiB given to the printing process from OS
             0 MiB allocation reported by mallinfo(arena+hblkhd)
           166 MiB available memory on the node where the printing process lives
------------------
     ethr =  1.80E-06,  avg # of iterations =  1.0

     negative rho (up, down):  4.559E-02 0.000E+00

     total cpu time spent up to now is       35.2 secs

     total energy              =      -2.31754118 Ry
     estimated scf accuracy    <       0.00000051 Ry

     iteration #  3     ecut=    25.00 Ry     beta= 0.70
     Davidson diagonalization with overlap

---- Real-time Memory Report at c_bands before calling an iterative solver
           359 MiB given to the printing process from OS
             0 MiB allocation reported by mallinfo(arena+hblkhd)
           152 MiB available memory on the node where the printing process lives
------------------
     ethr =  2.55E-08,  avg # of iterations =  2.0

     negative rho (up, down):  4.560E-02 0.000E+00

     total cpu time spent up to now is       36.0 secs

     total energy              =      -2.31752303 Ry
     estimated scf accuracy    <       0.00000002 Ry

     iteration #  4     ecut=    25.00 Ry     beta= 0.70
     Davidson diagonalization with overlap

---- Real-time Memory Report at c_bands before calling an iterative solver
           359 MiB given to the printing process from OS
             0 MiB allocation reported by mallinfo(arena+hblkhd)
           138 MiB available memory on the node where the printing process lives
------------------
     ethr =  1.06E-09,  avg # of iterations =  3.0

     negative rho (up, down):  4.560E-02 0.000E+00

     total cpu time spent up to now is       36.7 secs

     End of self-consistent calculation

          k =-0.5000-0.5000-0.5000 ( 57016 PWs)   bands (ev):

   -10.4226  -1.1144

     occupation numbers 
     1.0000   0.0000

     highest occupied, lowest unoccupied level (ev):   -10.4226   -1.1144

!    total energy              =      -2.31752588 Ry
     estimated scf accuracy    <          6.9E-10 Ry

     The total energy is the sum of the following terms:
     one-electron contribution =      -4.22619144 Ry
     hartree contribution      =       2.24943672 Ry
     xc contribution           =      -1.38828471 Ry
     ewald contribution        =       1.04751354 Ry

     convergence has been achieved in   4 iterations

     Forces acting on atoms (cartesian axes, Ry/au):

     atom    1 type  1   force =    -0.00769947    0.00000000    0.00000000
     atom    2 type  1   force =     0.00769947    0.00000000    0.00000000
     The non-local contrib.  to forces
     atom    1 type  1   force =     0.10809843    0.00000000    0.00000000
     atom    2 type  1   force =    -0.10637787    0.00000000    0.00000000
     The ionic contribution  to forces
     atom    1 type  1   force =    -1.01560625    0.00000000   -0.00000000
     atom    2 type  1   force =     1.01560625   -0.00000000   -0.00000000
     The local contribution  to forces
     atom    1 type  1   force =     0.90071645    0.00000000    0.00000000
     atom    2 type  1   force =    -0.90048641    0.00000000    0.00000000
     The core correction contribution to forces
     atom    1 type  1   force =     0.00000000    0.00000000    0.00000000
     atom    2 type  1   force =     0.00000000    0.00000000    0.00000000
     The Hubbard contrib.    to forces
     atom    1 type  1   force =     0.00000000    0.00000000    0.00000000
     atom    2 type  1   force =     0.00000000    0.00000000    0.00000000
     The SCF correction term to forces
     atom    1 type  1   force =     0.00013102   -0.00000000    0.00000000
     atom    2 type  1   force =    -0.00000339   -0.00000000   -0.00000000

     Total force =     0.010889     Total SCF correction =     0.000131
     Energy error            =      4.3E-04 Ry
     Gradient error          =      7.7E-03 Ry/Bohr

     number of scf cycles    =   7
     number of bfgs steps    =   3

     energy             old  =      -2.3179516422 Ry
     energy             new  =      -2.3175258832 Ry

     CASE: energy            _new > energy            _old

     new trust radius        =       0.0020248122 bohr
     new conv_thr            =       0.0000000011 Ry


ATOMIC_POSITIONS (angstrom)
H            -0.0260085298        0.0000000000        0.0000000000
H             0.7260085298        0.0000000000        0.0000000000



     Writing config-only to output data dir ./.save/
     NEW-OLD atomic charge density approx. for the potential

     negative rho (up, down):  4.558E-02 0.000E+00

     total cpu time spent up to now is       37.6 secs

     Self-consistent Calculation

     iteration #  1     ecut=    25.00 Ry     beta= 0.70
     Davidson diagonalization with overlap

---- Real-time Memory Report at c_bands before calling an iterative solver
           359 MiB given to the printing process from OS
             0 MiB allocation reported by mallinfo(arena+hblkhd)
           291 MiB available memory on the node where the printing process lives
------------------
     ethr =  1.00E-06,  avg # of iterations =  3.0

     negative rho (up, down):  4.518E-02 0.000E+00

     total cpu time spent up to now is       38.4 secs

     total energy              =      -2.31783721 Ry
     estimated scf accuracy    <       0.00002622 Ry

     iteration #  2     ecut=    25.00 Ry     beta= 0.70
     Davidson diagonalization with overlap

---- Real-time Memory Report at c_bands before calling an iterative solver
           359 MiB given to the printing process from OS
             0 MiB allocation reported by mallinfo(arena+hblkhd)
           166 MiB available memory on the node where the printing process lives
------------------
     ethr =  1.31E-06,  avg # of iterations =  2.0

     negative rho (up, down):  4.510E-02 0.000E+00

     total cpu time spent up to now is       39.2 secs

     total energy              =      -2.31788797 Ry
     estimated scf accuracy    <       0.00000030 Ry

     iteration #  3     ecut=    25.00 Ry     beta= 0.70
     Davidson diagonalization with overlap

---- Real-time Memory Report at c_bands before calling an iterative solver
           359 MiB given to the printing process from OS
             0 MiB allocation reported by mallinfo(arena+hblkhd)
           152 MiB available memory on the node where the printing process lives
------------------
     ethr =  1.50E-08,  avg # of iterations =  2.0

     negative rho (up, down):  4.508E-02 0.000E+00

     total cpu time spent up to now is       40.0 secs

     total energy              =      -2.31791269 Ry
     estimated scf accuracy    <       0.00000001 Ry

     iteration #  4     ecut=    25.00 Ry     beta= 0.70
     Davidson diagonalization with overlap

---- Real-time Memory Report at c_bands before calling an iterative solver
           359 MiB given to the printing process from OS
             0 MiB allocation reported by mallinfo(arena+hblkhd)
           138 MiB available memory on the node where the printing process lives
------------------
     ethr =  5.57E-10,  avg # of iterations =  3.0

     negative rho (up, down):  4.508E-02 0.000E+00

     total cpu time spent up to now is       40.9 secs

     total energy              =      -2.31791541 Ry
     estimated scf accuracy    <          1.6E-09 Ry

     iteration #  5     ecut=    25.00 Ry     beta= 0.70
     Davidson diagonalization with overlap

---- Real-time Memory Report at c_bands before calling an iterative solver
           359 MiB given to the printing process from OS
             0 MiB allocation reported by mallinfo(arena+hblkhd)
           124 MiB available memory on the node where the printing process lives
------------------
     ethr =  8.23E-11,  avg # of iterations =  4.0

     negative rho (up, down):  4.508E-02 0.000E+00

     total cpu time spent up to now is       41.8 secs

     total energy              =      -2.31791422 Ry
     estimated scf accuracy    <          1.6E-09 Ry

     iteration #  6     ecut=    25.00 Ry     beta= 0.70
     Davidson diagonalization with overlap

---- Real-time Memory Report at c_bands before calling an iterative solver
           373 MiB given to the printing process from OS
             0 MiB allocation reported by mallinfo(arena+hblkhd)
           133 MiB available memory on the node where the printing process lives
------------------
     ethr =  8.23E-11,  avg # of iterations =  3.0

     negative rho (up, down):  4.508E-02 0.000E+00

     total cpu time spent up to now is       42.6 secs

     End of self-consistent calculation

          k =-0.5000-0.5000-0.5000 ( 57016 PWs)   bands (ev):

   -10.3744  -1.1030

     occupation numbers 
     1.0000   0.0000

     highest occupied, lowest unoccupied level (ev):   -10.3744   -1.1030

!    total energy              =      -2.31790203 Ry
     estimated scf accuracy    <          1.6E-10 Ry

     The total energy is the sum of the following terms:
     one-electron contribution =      -4.20158084 Ry
     hartree contribution      =       2.23658639 Ry
     xc contribution           =      -1.38226986 Ry
     ewald contribution        =       1.02936228 Ry

     convergence has been achieved in   6 iterations

     Forces acting on atoms (cartesian axes, Ry/au):

     atom    1 type  1   force =     0.00771240    0.00000000    0.00000000
     atom    2 type  1   force =    -0.00771240    0.00000000    0.00000000
     The non-local contrib.  to forces
     atom    1 type  1   force =     0.10758149    0.00000000    0.00000000
     atom    2 type  1   force =    -0.10630592    0.00000000    0.00000000
     The ionic contribution  to forces
     atom    1 type  1   force =    -0.98987914    0.00000000   -0.00000000
     atom    2 type  1   force =     0.98987914   -0.00000000   -0.00000000
     The local contribution  to forces
     atom    1 type  1   force =     0.89077661    0.00000000    0.00000000
     atom    2 type  1   force =    -0.89057202    0.00000000    0.00000000
     The core correction contribution to forces
     atom    1 type  1   force =     0.00000000    0.00000000    0.00000000
     atom    2 type  1   force =     0.00000000    0.00000000    0.00000000
     The Hubbard contrib.    to forces
     atom    1 type  1   force =     0.00000000    0.00000000    0.00000000
     atom    2 type  1   force =     0.00000000    0.00000000    0.00000000
     The SCF correction term to forces
     atom    1 type  1   force =     0.00007385    0.00000000   -0.00000000
     atom    2 type  1   force =     0.00012682    0.00000000    0.00000000

     Total force =     0.010907     Total SCF correction =     0.000147
     Energy error            =      5.0E-05 Ry
     Gradient error          =      7.7E-03 Ry/Bohr

     number of scf cycles    =   8
     number of bfgs steps    =   3

     energy             old  =      -2.3179516422 Ry
     energy             new  =      -2.3179020300 Ry

     CASE: energy            _new > energy            _old

     new trust radius        =       0.0004807122 bohr
     new conv_thr            =       0.0000000011 Ry


ATOMIC_POSITIONS (angstrom)
H            -0.0268256324        0.0000000000        0.0000000000
H             0.7268256324        0.0000000000        0.0000000000



     Writing config-only to output data dir ./.save/
     NEW-OLD atomic charge density approx. for the potential

     negative rho (up, down):  4.508E-02 0.000E+00

     total cpu time spent up to now is       43.6 secs

     Self-consistent Calculation

     iteration #  1     ecut=    25.00 Ry     beta= 0.70
     Davidson diagonalization with overlap

---- Real-time Memory Report at c_bands before calling an iterative solver
           373 MiB given to the printing process from OS
             0 MiB allocation reported by mallinfo(arena+hblkhd)
           313 MiB available memory on the node where the printing process lives
------------------
     ethr =  1.00E-06,  avg # of iterations =  2.0

     Threshold (ethr) on eigenvalues was too large:
     Diagonalizing with lowered threshold

     Davidson diagonalization with overlap

---- Real-time Memory Report at c_bands before calling an iterative solver
           373 MiB given to the printing process from OS
             0 MiB allocation reported by mallinfo(arena+hblkhd)
           314 MiB available memory on the node where the printing process lives
------------------
     ethr =  3.34E-08,  avg # of iterations =  1.0

     negative rho (up, down):  4.501E-02 0.000E+00

     total cpu time spent up to now is       44.6 secs

     total energy              =      -2.31793546 Ry
     estimated scf accuracy    <       0.00000073 Ry

     iteration #  2     ecut=    25.00 Ry     beta= 0.70
     Davidson diagonalization with overlap

---- Real-time Memory Report at c_bands before calling an iterative solver
           373 MiB given to the printing process from OS
             0 MiB allocation reported by mallinfo(arena+hblkhd)
           189 MiB available memory on the node where the printing process lives
------------------
     ethr =  3.63E-08,  avg # of iterations =  2.0

     negative rho (up, down):  4.500E-02 0.000E+00

     total cpu time spent up to now is       45.5 secs

     total energy              =      -2.31793916 Ry
     estimated scf accuracy    <          9.2E-09 Ry

     iteration #  3     ecut=    25.00 Ry     beta= 0.70
     Davidson diagonalization with overlap

---- Real-time Memory Report at c_bands before calling an iterative solver
           373 MiB given to the printing process from OS
             0 MiB allocation reported by mallinfo(arena+hblkhd)
           174 MiB available memory on the node where the printing process lives
------------------
     ethr =  4.62E-10,  avg # of iterations =  3.0

     negative rho (up, down):  4.499E-02 0.000E+00

     total cpu time spent up to now is       46.6 secs

     total energy              =      -2.31795241 Ry
     estimated scf accuracy    <          2.3E-09 Ry

     iteration #  4     ecut=    25.00 Ry     beta= 0.70
     Davidson diagonalization with overlap

---- Real-time Memory Report at c_bands before calling an iterative solver
           373 MiB given to the printing process from OS
             0 MiB allocation reported by mallinfo(arena+hblkhd)
           159 MiB available memory on the node where the printing process lives
------------------
     ethr =  1.13E-10,  avg # of iterations =  4.0

     negative rho (up, down):  4.499E-02 0.000E+00

     total cpu time spent up to now is       47.6 secs

     total energy              =      -2.31795124 Ry
     estimated scf accuracy    <          4.3E-09 Ry

     iteration #  5     ecut=    25.00 Ry     beta= 0.70
     Davidson diagonalization with overlap

---- Real-time Memory Report at c_bands before calling an iterative solver
           373 MiB given to the printing process from OS
             0 MiB allocation reported by mallinfo(arena+hblkhd)
           145 MiB available memory on the node where the printing process lives
------------------
     ethr =  1.13E-10,  avg # of iterations =  3.0

     negative rho (up, down):  4.499E-02 0.000E+00

     total cpu time spent up to now is       48.6 secs

     total energy              =      -2.31795052 Ry
     estimated scf accuracy    <          1.3E-09 Ry

     iteration #  6     ecut=    25.00 Ry     beta= 0.70
     Davidson diagonalization with overlap

---- Real-time Memory Report at c_bands before calling an iterative solver
           373 MiB given to the printing process from OS
             0 MiB allocation reported by mallinfo(arena+hblkhd)
           131 MiB available memory on the node where the printing process lives
------------------
     ethr =  6.34E-11,  avg # of iterations =  3.0

     negative rho (up, down):  4.500E-02 0.000E+00

     total cpu time spent up to now is       49.5 secs

     End of self-consistent calculation

          k =-0.5000-0.5000-0.5000 ( 57016 PWs)   bands (ev):

   -10.3660  -1.0997

     occupation numbers 
     1.0000   0.0000

     highest occupied, lowest unoccupied level (ev):   -10.3660   -1.0997

!    total energy              =      -2.31794263 Ry
     estimated scf accuracy    <          2.5E-10 Ry

     The total energy is the sum of the following terms:
     one-electron contribution =      -4.19743285 Ry
     hartree contribution      =       2.23445042 Ry
     xc contribution           =      -1.38127217 Ry
     ewald contribution        =       1.02631196 Ry

     convergence has been achieved in   6 iterations

     Forces acting on atoms (cartesian axes, Ry/au):

     atom    1 type  1   force =     0.01034911    0.00000000    0.00000000
     atom    2 type  1   force =    -0.01034911    0.00000000    0.00000000
     The non-local contrib.  to forces
     atom    1 type  1   force =     0.10748642    0.00000000    0.00000000
     atom    2 type  1   force =    -0.10644578    0.00000000    0.00000000
     The ionic contribution  to forces
     atom    1 type  1   force =    -0.98558802    0.00000000   -0.00000000
     atom    2 type  1   force =     0.98558802    0.00000000   -0.00000000
     The local contribution  to forces
     atom    1 type  1   force =     0.88911402    0.00000000    0.00000000
     atom    2 type  1   force =    -0.88889081    0.00000000    0.00000000
     The core correction contribution to forces
     atom    1 type  1   force =     0.00000000    0.00000000    0.00000000
     atom    2 type  1   force =     0.00000000    0.00000000    0.00000000
     The Hubbard contrib.    to forces
     atom    1 type  1   force =     0.00000000    0.00000000    0.00000000
     atom    2 type  1   force =     0.00000000    0.00000000    0.00000000
     The SCF correction term to forces
     atom    1 type  1   force =    -0.00000691   -0.00000000   -0.00000000
     atom    2 type  1   force =     0.00005586   -0.00000000   -0.00000000

     Total force =     0.014636     Total SCF correction =     0.000056
     Energy error            =      9.0E-06 Ry
     Gradient error          =      1.0E-02 Ry/Bohr

     number of scf cycles    =   9
     number of bfgs steps    =   3

     energy             old  =      -2.3179516422 Ry
     energy             new  =      -2.3179426331 Ry

     CASE: energy            _new > energy            _old

     new trust radius        =       0.0001302035 bohr
     new conv_thr            =       0.0000000011 Ry


ATOMIC_POSITIONS (angstrom)
H            -0.0270111136        0.0000000000        0.0000000000
H             0.7270111136        0.0000000000        0.0000000000



     Writing config-only to output data dir ./.save/
     NEW-OLD atomic charge density approx. for the potential

     negative rho (up, down):  4.499E-02 0.000E+00

     total cpu time spent up to now is       50.5 secs

     Self-consistent Calculation

     iteration #  1     ecut=    25.00 Ry     beta= 0.70
     Davidson diagonalization with overlap

---- Real-time Memory Report at c_bands before calling an iterative solver
           373 MiB given to the printing process from OS
             0 MiB allocation reported by mallinfo(arena+hblkhd)
           312 MiB available memory on the node where the printing process lives
------------------
     ethr =  1.00E-06,  avg # of iterations =  2.0

     Threshold (ethr) on eigenvalues was too large:
     Diagonalizing with lowered threshold

     Davidson diagonalization with overlap

---- Real-time Memory Report at c_bands before calling an iterative solver
           373 MiB given to the printing process from OS
             0 MiB allocation reported by mallinfo(arena+hblkhd)
           312 MiB available memory on the node where the printing process lives
------------------
     ethr =  2.43E-09,  avg # of iterations =  1.0

     negative rho (up, down):  4.497E-02 0.000E+00

     total cpu time spent up to now is       51.8 secs

     total energy              =      -2.31795567 Ry
     estimated scf accuracy    <       0.00000006 Ry

     iteration #  2     ecut=    25.00 Ry     beta= 0.70
     Davidson diagonalization with overlap

---- Real-time Memory Report at c_bands before calling an iterative solver
           373 MiB given to the printing process from OS
             0 MiB allocation reported by mallinfo(arena+hblkhd)
           243 MiB available memory on the node where the printing process lives
------------------
     ethr =  2.83E-09,  avg # of iterations =  3.0

     negative rho (up, down):  4.498E-02 0.000E+00

     total cpu time spent up to now is       52.7 secs

     total energy              =      -2.31795182 Ry
     estimated scf accuracy    <          2.4E-09 Ry

     iteration #  3     ecut=    25.00 Ry     beta= 0.70
     Davidson diagonalization with overlap

---- Real-time Memory Report at c_bands before calling an iterative solver
           373 MiB given to the printing process from OS
             0 MiB allocation reported by mallinfo(arena+hblkhd)
           229 MiB available memory on the node where the printing process lives
------------------
     ethr =  1.19E-10,  avg # of iterations =  3.0

     negative rho (up, down):  4.497E-02 0.000E+00

     total cpu time spent up to now is       53.4 secs

     End of self-consistent calculation

          k =-0.5000-0.5000-0.5000 ( 57016 PWs)   bands (ev):

   -10.3640  -1.0999

     occupation numbers 
     1.0000   0.0000

     highest occupied, lowest unoccupied level (ev):   -10.3640   -1.0999

!    total energy              =      -2.31795275 Ry
     estimated scf accuracy    <          9.5E-10 Ry

     The total energy is the sum of the following terms:
     one-electron contribution =      -4.19644518 Ry
     hartree contribution      =       2.23387753 Ry
     xc contribution           =      -1.38100648 Ry
     ewald contribution        =       1.02562139 Ry

     convergence has been achieved in   3 iterations

     Forces acting on atoms (cartesian axes, Ry/au):

     atom    1 type  1   force =     0.01089814    0.00000000    0.00000000
     atom    2 type  1   force =    -0.01089814    0.00000000    0.00000000
     The non-local contrib.  to forces
     atom    1 type  1   force =     0.10740769    0.00000000    0.00000000
     atom    2 type  1   force =    -0.10648548    0.00000000    0.00000000
     The ionic contribution  to forces
     atom    1 type  1   force =    -0.98461783    0.00000000   -0.00000000
     atom    2 type  1   force =     0.98461783   -0.00000000   -0.00000000
     The local contribution  to forces
     atom    1 type  1   force =     0.88870040    0.00000000    0.00000000
     atom    2 type  1   force =    -0.88847870    0.00000000    0.00000000
     The core correction contribution to forces
     atom    1 type  1   force =     0.00000000    0.00000000    0.00000000
     atom    2 type  1   force =     0.00000000    0.00000000    0.00000000
     The Hubbard contrib.    to forces
     atom    1 type  1   force =     0.00000000    0.00000000    0.00000000
     atom    2 type  1   force =     0.00000000    0.00000000    0.00000000
     The SCF correction term to forces
     atom    1 type  1   force =    -0.00001281    0.00000000    0.00000000
     atom    2 type  1   force =     0.00002752    0.00000000   -0.00000000

     Total force =     0.015412     Total SCF correction =     0.000030
     Energy error            =      1.1E-06 Ry
     Gradient error          =      1.1E-02 Ry/Bohr

     number of scf cycles    =  10
     number of bfgs steps    =   3

     energy             old  =      -2.3179516422 Ry
     energy             new  =      -2.3179527475 Ry

     CASE: energy            _new < energy            _old

     new trust radius        =       0.0001953052 bohr
     new conv_thr            =            1.0E-10 Ry


ATOMIC_POSITIONS (angstrom)
H            -0.0269077626        0.0000000000        0.0000000000
H             0.7269077626        0.0000000000        0.0000000000



     Writing config-only to output data dir ./.save/
     NEW-OLD atomic charge density approx. for the potential

     negative rho (up, down):  4.497E-02 0.000E+00

     total cpu time spent up to now is       54.2 secs

     Self-consistent Calculation

     iteration #  1     ecut=    25.00 Ry     beta= 0.70
     Davidson diagonalization with overlap

---- Real-time Memory Report at c_bands before calling an iterative solver
           373 MiB given to the printing process from OS
             0 MiB allocation reported by mallinfo(arena+hblkhd)
           368 MiB available memory on the node where the printing process lives
------------------
     ethr =  1.00E-06,  avg # of iterations =  2.0

     Threshold (ethr) on eigenvalues was too large:
     Diagonalizing with lowered threshold

     Davidson diagonalization with overlap

---- Real-time Memory Report at c_bands before calling an iterative solver
           373 MiB given to the printing process from OS
             0 MiB allocation reported by mallinfo(arena+hblkhd)
           368 MiB available memory on the node where the printing process lives
------------------
     ethr =  6.50E-10,  avg # of iterations =  1.0

     negative rho (up, down):  4.498E-02 0.000E+00

     total cpu time spent up to now is       55.2 secs

     total energy              =      -2.31795160 Ry
     estimated scf accuracy    <       0.00000001 Ry

     iteration #  2     ecut=    25.00 Ry     beta= 0.70
     Davidson diagonalization with overlap

---- Real-time Memory Report at c_bands before calling an iterative solver
           373 MiB given to the printing process from OS
             0 MiB allocation reported by mallinfo(arena+hblkhd)
           243 MiB available memory on the node where the printing process lives
------------------
     ethr =  7.48E-10,  avg # of iterations =  3.0

     negative rho (up, down):  4.498E-02 0.000E+00

     total cpu time spent up to now is       56.1 secs

     total energy              =      -2.31794500 Ry
     estimated scf accuracy    <          5.1E-10 Ry

     iteration #  3     ecut=    25.00 Ry     beta= 0.70
     Davidson diagonalization with overlap

---- Real-time Memory Report at c_bands before calling an iterative solver
           373 MiB given to the printing process from OS
             0 MiB allocation reported by mallinfo(arena+hblkhd)
           229 MiB available memory on the node where the printing process lives
------------------
     ethr =  2.54E-11,  avg # of iterations =  4.0

     negative rho (up, down):  4.498E-02 0.000E+00

     total cpu time spent up to now is       57.1 secs

     total energy              =      -2.31795504 Ry
     estimated scf accuracy    <          1.6E-09 Ry

     iteration #  4     ecut=    25.00 Ry     beta= 0.70
     Davidson diagonalization with overlap

---- Real-time Memory Report at c_bands before calling an iterative solver
           373 MiB given to the printing process from OS
             0 MiB allocation reported by mallinfo(arena+hblkhd)
           215 MiB available memory on the node where the printing process lives
------------------
     ethr =  2.54E-11,  avg # of iterations =  4.0

     negative rho (up, down):  4.498E-02 0.000E+00

     total cpu time spent up to now is       58.0 secs

     total energy              =      -2.31795077 Ry
     estimated scf accuracy    <          1.7E-09 Ry

     iteration #  5     ecut=    25.00 Ry     beta= 0.70
     Davidson diagonalization with overlap

---- Real-time Memory Report at c_bands before calling an iterative solver
           373 MiB given to the printing process from OS
             0 MiB allocation reported by mallinfo(arena+hblkhd)
           201 MiB available memory on the node where the printing process lives
------------------
     ethr =  2.54E-11,  avg # of iterations =  4.0

     negative rho (up, down):  4.498E-02 0.000E+00

     total cpu time spent up to now is       58.9 secs

     total energy              =      -2.31794969 Ry
     estimated scf accuracy    <          1.3E-10 Ry

     iteration #  6     ecut=    25.00 Ry     beta= 0.70
     Davidson diagonalization with overlap

---- Real-time Memory Report at c_bands before calling an iterative solver
           373 MiB given to the printing process from OS
             0 MiB allocation reported by mallinfo(arena+hblkhd)
           187 MiB available memory on the node where the printing process lives
------------------
     ethr =  6.68E-12,  avg # of iterations =  2.0

     negative rho (up, down):  4.498E-02 0.000E+00

     total cpu time spent up to now is       59.8 secs

     total energy              =      -2.31794628 Ry
     estimated scf accuracy    <          1.7E-10 Ry

     iteration #  7     ecut=    25.00 Ry     beta= 0.70
     Davidson diagonalization with overlap

---- Real-time Memory Report at c_bands before calling an iterative solver
           387 MiB given to the printing process from OS
             0 MiB allocation reported by mallinfo(arena+hblkhd)
           173 MiB available memory on the node where the printing process lives
------------------
     ethr =  6.68E-12,  avg # of iterations =  4.0

     negative rho (up, down):  4.498E-02 0.000E+00

     total cpu time spent up to now is       60.7 secs

     total energy              =      -2.31794513 Ry
     estimated scf accuracy    <          1.2E-09 Ry

     iteration #  8     ecut=    25.00 Ry     beta= 0.70
     Davidson diagonalization with overlap

---- Real-time Memory Report at c_bands before calling an iterative solver
           400 MiB given to the printing process from OS
             0 MiB allocation reported by mallinfo(arena+hblkhd)
           159 MiB available memory on the node where the printing process lives
------------------
     ethr =  6.68E-12,  avg # of iterations =  4.0

     negative rho (up, down):  4.498E-02 0.000E+00

     total cpu time spent up to now is       61.6 secs

     total energy              =      -2.31794515 Ry
     estimated scf accuracy    <          1.9E-09 Ry

     iteration #  9     ecut=    25.00 Ry     beta= 0.70
     Davidson diagonalization with overlap

---- Real-time Memory Report at c_bands before calling an iterative solver
           414 MiB given to the printing process from OS
             0 MiB allocation reported by mallinfo(arena+hblkhd)
           146 MiB available memory on the node where the printing process lives
------------------
     ethr =  6.68E-12,  avg # of iterations =  1.0

     negative rho (up, down):  4.498E-02 0.000E+00

     total cpu time spent up to now is       62.4 secs

     total energy              =      -2.31795012 Ry
     estimated scf accuracy    <          1.9E-09 Ry

     iteration # 10     ecut=    25.00 Ry     beta= 0.70
     Davidson diagonalization with overlap

---- Real-time Memory Report at c_bands before calling an iterative solver
           428 MiB given to the printing process from OS
             0 MiB allocation reported by mallinfo(arena+hblkhd)
           132 MiB available memory on the node where the printing process lives
------------------
     ethr =  6.68E-12,  avg # of iterations =  5.0

     negative rho (up, down):  4.498E-02 0.000E+00

[...]
             0 MiB allocation reported by mallinfo(arena+hblkhd)
           131 MiB available memory on the node where the printing process lives
------------------
     ethr =  9.37E-12,  avg # of iterations =  4.0

     negative rho (up, down):  4.501E-02 0.000E+00

     total cpu time spent up to now is      411.3 secs

     total energy              =      -2.31793844 Ry
     estimated scf accuracy    <          7.7E-09 Ry

     iteration # 23     ecut=    25.00 Ry     beta= 0.70
     Davidson diagonalization with overlap

---- Real-time Memory Report at c_bands before calling an iterative solver
           429 MiB given to the printing process from OS
             0 MiB allocation reported by mallinfo(arena+hblkhd)
           131 MiB available memory on the node where the printing process lives
------------------
     ethr =  9.37E-12,  avg # of iterations =  4.0

     negative rho (up, down):  4.500E-02 0.000E+00

     total cpu time spent up to now is      412.2 secs

     total energy              =      -2.31794236 Ry
     estimated scf accuracy    <          8.2E-09 Ry

     iteration # 24     ecut=    25.00 Ry     beta= 0.70
     Davidson diagonalization with overlap

---- Real-time Memory Report at c_bands before calling an iterative solver
           429 MiB given to the printing process from OS
             0 MiB allocation reported by mallinfo(arena+hblkhd)
           131 MiB available memory on the node where the printing process lives
------------------
     ethr =  9.37E-12,  avg # of iterations =  4.0

     negative rho (up, down):  4.500E-02 0.000E+00

     total cpu time spent up to now is      413.1 secs

     total energy              =      -2.31795020 Ry
     estimated scf accuracy    <          9.4E-10 Ry

     iteration # 25     ecut=    25.00 Ry     beta= 0.70
     Davidson diagonalization with overlap

---- Real-time Memory Report at c_bands before calling an iterative solver
           429 MiB given to the printing process from OS
             0 MiB allocation reported by mallinfo(arena+hblkhd)
           131 MiB available memory on the node where the printing process lives
------------------
     ethr =  9.37E-12,  avg # of iterations =  4.0

     negative rho (up, down):  4.500E-02 0.000E+00

     total cpu time spent up to now is      413.9 secs

     total energy              =      -2.31794915 Ry
     estimated scf accuracy    <          2.1E-09 Ry

     iteration # 26     ecut=    25.00 Ry     beta= 0.70
     Davidson diagonalization with overlap

---- Real-time Memory Report at c_bands before calling an iterative solver
           429 MiB given to the printing process from OS
             0 MiB allocation reported by mallinfo(arena+hblkhd)
           131 MiB available memory on the node where the printing process lives
------------------
     ethr =  9.37E-12,  avg # of iterations =  4.0

     negative rho (up, down):  4.500E-02 0.000E+00

     total cpu time spent up to now is      414.8 secs

     total energy              =      -2.31794969 Ry
     estimated scf accuracy    <          8.9E-10 Ry

     iteration # 27     ecut=    25.00 Ry     beta= 0.70
     Davidson diagonalization with overlap

---- Real-time Memory Report at c_bands before calling an iterative solver
           429 MiB given to the printing process from OS
             0 MiB allocation reported by mallinfo(arena+hblkhd)
           131 MiB available memory on the node where the printing process lives
------------------
     ethr =  9.37E-12,  avg # of iterations =  4.0

     negative rho (up, down):  4.500E-02 0.000E+00

     total cpu time spent up to now is      415.7 secs

     total energy              =      -2.31794893 Ry
     estimated scf accuracy    <          1.5E-09 Ry

     iteration # 28     ecut=    25.00 Ry     beta= 0.70
     Davidson diagonalization with overlap

---- Real-time Memory Report at c_bands before calling an iterative solver
           429 MiB given to the printing process from OS
             0 MiB allocation reported by mallinfo(arena+hblkhd)
           131 MiB available memory on the node where the printing process lives
------------------
     ethr =  9.37E-12,  avg # of iterations =  4.0

     negative rho (up, down):  4.500E-02 0.000E+00

     total cpu time spent up to now is      416.6 secs

     total energy              =      -2.31794256 Ry
     estimated scf accuracy    <          3.3E-10 Ry

     iteration # 29     ecut=    25.00 Ry     beta= 0.70
     Davidson diagonalization with overlap

---- Real-time Memory Report at c_bands before calling an iterative solver
           429 MiB given to the printing process from OS
             0 MiB allocation reported by mallinfo(arena+hblkhd)
           131 MiB available memory on the node where the printing process lives
------------------
     ethr =  9.37E-12,  avg # of iterations =  4.0

     negative rho (up, down):  4.500E-02 0.000E+00

     total cpu time spent up to now is      417.5 secs

     total energy              =      -2.31794276 Ry
     estimated scf accuracy    <          7.3E-10 Ry

     iteration # 30     ecut=    25.00 Ry     beta= 0.70
     Davidson diagonalization with overlap

---- Real-time Memory Report at c_bands before calling an iterative solver
           429 MiB given to the printing process from OS
             0 MiB allocation reported by mallinfo(arena+hblkhd)
           131 MiB available memory on the node where the printing process lives
------------------
     ethr =  9.37E-12,  avg # of iterations =  2.0

     negative rho (up, down):  4.500E-02 0.000E+00

     total cpu time spent up to now is      418.3 secs

     total energy              =      -2.31795015 Ry
     estimated scf accuracy    <          5.9E-10 Ry

     iteration # 31     ecut=    25.00 Ry     beta= 0.70
     Davidson diagonalization with overlap

---- Real-time Memory Report at c_bands before calling an iterative solver
           429 MiB given to the printing process from OS
             0 MiB allocation reported by mallinfo(arena+hblkhd)
           131 MiB available memory on the node where the printing process lives
------------------
     ethr =  9.37E-12,  avg # of iterations =  4.0

     negative rho (up, down):  4.500E-02 0.000E+00

     total cpu time spent up to now is      419.2 secs

     total energy              =      -2.31794292 Ry
     estimated scf accuracy    <          9.9E-10 Ry

     iteration # 32     ecut=    25.00 Ry     beta= 0.70
     Davidson diagonalization with overlap

---- Real-time Memory Report at c_bands before calling an iterative solver
           429 MiB given to the printing process from OS
             0 MiB allocation reported by mallinfo(arena+hblkhd)
           131 MiB available memory on the node where the printing process lives
------------------
     ethr =  9.37E-12,  avg # of iterations =  4.0

     negative rho (up, down):  4.501E-02 0.000E+00

     total cpu time spent up to now is      420.1 secs

     total energy              =      -2.31793689 Ry
     estimated scf accuracy    <          3.3E-10 Ry

     iteration # 33     ecut=    25.00 Ry     beta= 0.70
     Davidson diagonalization with overlap

---- Real-time Memory Report at c_bands before calling an iterative solver
           429 MiB given to the printing process from OS
             0 MiB allocation reported by mallinfo(arena+hblkhd)
           131 MiB available memory on the node where the printing process lives
------------------
     ethr =  9.37E-12,  avg # of iterations =  4.0

     negative rho (up, down):  4.500E-02 0.000E+00

     total cpu time spent up to now is      420.9 secs

     total energy              =      -2.31794527 Ry
     estimated scf accuracy    <          7.5E-09 Ry

     iteration # 34     ecut=    25.00 Ry     beta= 0.70
     Davidson diagonalization with overlap

---- Real-time Memory Report at c_bands before calling an iterative solver
           429 MiB given to the printing process from OS
             0 MiB allocation reported by mallinfo(arena+hblkhd)
           131 MiB available memory on the node where the printing process lives
------------------
     ethr =  9.37E-12,  avg # of iterations =  4.0

     negative rho (up, down):  4.500E-02 0.000E+00

     total cpu time spent up to now is      421.8 secs

     total energy              =      -2.31793872 Ry
     estimated scf accuracy    <          1.1E-10 Ry

     iteration # 35     ecut=    25.00 Ry     beta= 0.70
     Davidson diagonalization with overlap

---- Real-time Memory Report at c_bands before calling an iterative solver
           429 MiB given to the printing process from OS
             0 MiB allocation reported by mallinfo(arena+hblkhd)
           131 MiB available memory on the node where the printing process lives
------------------
     ethr =  5.55E-12,  avg # of iterations =  4.0

     negative rho (up, down):  4.500E-02 0.000E+00

     total cpu time spent up to now is      422.6 secs

     total energy              =      -2.31794236 Ry
     estimated scf accuracy    <          5.6E-09 Ry

     iteration # 36     ecut=    25.00 Ry     beta= 0.70
     Davidson diagonalization with overlap

---- Real-time Memory Report at c_bands before calling an iterative solver
           429 MiB given to the printing process from OS
             0 MiB allocation reported by mallinfo(arena+hblkhd)
           131 MiB available memory on the node where the printing process lives
------------------
     ethr =  5.55E-12,  avg # of iterations =  4.0

     negative rho (up, down):  4.500E-02 0.000E+00

     total cpu time spent up to now is      423.5 secs

     total energy              =      -2.31794108 Ry
     estimated scf accuracy    <          9.9E-10 Ry

     iteration # 37     ecut=    25.00 Ry     beta= 0.70
     Davidson diagonalization with overlap

---- Real-time Memory Report at c_bands before calling an iterative solver
           429 MiB given to the printing process from OS
             0 MiB allocation reported by mallinfo(arena+hblkhd)
           131 MiB available memory on the node where the printing process lives
------------------
     ethr =  5.55E-12,  avg # of iterations =  3.0

     negative rho (up, down):  4.500E-02 0.000E+00

     total cpu time spent up to now is      424.4 secs

     total energy              =      -2.31794479 Ry
     estimated scf accuracy    <          1.3E-09 Ry

     iteration # 38     ecut=    25.00 Ry     beta= 0.70
     Davidson diagonalization with overlap

---- Real-time Memory Report at c_bands before calling an iterative solver
           429 MiB given to the printing process from OS
             0 MiB allocation reported by mallinfo(arena+hblkhd)
           131 MiB available memory on the node where the printing process lives
------------------
     ethr =  5.55E-12,  avg # of iterations =  4.0

     negative rho (up, down):  4.500E-02 0.000E+00

     total cpu time spent up to now is      425.2 secs

     total energy              =      -2.31794109 Ry
     estimated scf accuracy    <          4.8E-10 Ry

     iteration # 39     ecut=    25.00 Ry     beta= 0.70
     Davidson diagonalization with overlap

---- Real-time Memory Report at c_bands before calling an iterative solver
           429 MiB given to the printing process from OS
             0 MiB allocation reported by mallinfo(arena+hblkhd)
           131 MiB available memory on the node where the printing process lives
------------------
     ethr =  5.55E-12,  avg # of iterations =  4.0

     negative rho (up, down):  4.500E-02 0.000E+00

     total cpu time spent up to now is      426.1 secs

     total energy              =      -2.31794252 Ry
     estimated scf accuracy    <          1.1E-09 Ry

     iteration # 40     ecut=    25.00 Ry     beta= 0.70
     Davidson diagonalization with overlap

---- Real-time Memory Report at c_bands before calling an iterative solver
           429 MiB given to the printing process from OS
             0 MiB allocation reported by mallinfo(arena+hblkhd)
           131 MiB available memory on the node where the printing process lives
------------------
     ethr =  5.55E-12,  avg # of iterations =  3.0

     negative rho (up, down):  4.500E-02 0.000E+00

     total cpu time spent up to now is      427.0 secs

     total energy              =      -2.31794670 Ry
     estimated scf accuracy    <          8.7E-10 Ry

     iteration # 41     ecut=    25.00 Ry     beta= 0.70
     Davidson diagonalization with overlap

---- Real-time Memory Report at c_bands before calling an iterative solver
           429 MiB given to the printing process from OS
             0 MiB allocation reported by mallinfo(arena+hblkhd)
           131 MiB available memory on the node where the printing process lives
------------------
     ethr =  5.55E-12,  avg # of iterations =  4.0

     negative rho (up, down):  4.500E-02 0.000E+00

     total cpu time spent up to now is      427.9 secs

     total energy              =      -2.31794543 Ry
     estimated scf accuracy    <          2.5E-10 Ry

     iteration # 42     ecut=    25.00 Ry     beta= 0.70
     Davidson diagonalization with overlap

---- Real-time Memory Report at c_bands before calling an iterative solver
           429 MiB given to the printing process from OS
             0 MiB allocation reported by mallinfo(arena+hblkhd)
           131 MiB available memory on the node where the printing process lives
------------------
     ethr =  5.55E-12,  avg # of iterations =  4.0

     negative rho (up, down):  4.500E-02 0.000E+00

     total cpu time spent up to now is      428.6 secs

     End of self-consistent calculation

          k =-0.5000-0.5000-0.5000 ( 57016 PWs)   bands (ev):

   -10.3666  -1.1016

     occupation numbers 
     1.0000   0.0000

     highest occupied, lowest unoccupied level (ev):   -10.3666   -1.1016

!    total energy              =      -2.31794563 Ry
     estimated scf accuracy    <          6.6E-11 Ry

     The total energy is the sum of the following terms:
     one-electron contribution =      -4.19768449 Ry
     hartree contribution      =       2.23455143 Ry
     xc contribution           =      -1.38132551 Ry
     ewald contribution        =       1.02651294 Ry

     convergence has been achieved in  42 iterations

     Forces acting on atoms (cartesian axes, Ry/au):

     atom    1 type  1   force =     0.01025835    0.00000000    0.00000000
     atom    2 type  1   force =    -0.01025835    0.00000000    0.00000000
     The non-local contrib.  to forces
     atom    1 type  1   force =     0.10744384    0.00000000    0.00000000
     atom    2 type  1   force =    -0.10655100    0.00000000    0.00000000
     The ionic contribution  to forces
     atom    1 type  1   force =    -0.98587046   -0.00000000   -0.00000000
     atom    2 type  1   force =     0.98587046    0.00000000   -0.00000000
     The local contribution  to forces
     atom    1 type  1   force =     0.88921036    0.00000000    0.00000000
     atom    2 type  1   force =    -0.88898554    0.00000000    0.00000000
     The core correction contribution to forces
     atom    1 type  1   force =     0.00000000    0.00000000    0.00000000
     atom    2 type  1   force =     0.00000000    0.00000000    0.00000000
     The Hubbard contrib.    to forces
     atom    1 type  1   force =     0.00000000    0.00000000    0.00000000
     atom    2 type  1   force =     0.00000000    0.00000000    0.00000000
     The SCF correction term to forces
     atom    1 type  1   force =    -0.00007009    0.00000000    0.00000000
     atom    2 type  1   force =    -0.00013697    0.00000000    0.00000000

     Total force =     0.014507     Total SCF correction =     0.000154
     Energy error            =      7.1E-06 Ry
     Gradient error          =      1.0E-02 Ry/Bohr

     number of scf cycles    =  50
     number of bfgs steps    =   4

     energy             old  =      -2.3179527475 Ry
     energy             new  =      -2.3179456329 Ry

     CASE: energy            _new > energy            _old

     new trust radius        =       0.0001314178 bohr

     The maximum number of steps has been reached.

     End of BFGS Geometry Optimization

ATOMIC_POSITIONS (angstrom)
H            -0.0269415703        0.0000000000        0.0000000000
H             0.7269415703        0.0000000000        0.0000000000



     Writing config-only to output data dir ./.save/
     NEW-OLD atomic charge density approx. for the potential

     negative rho (up, down):  4.500E-02 0.000E+00

     Writing all to output data dir ./.save/

     init_run     :      0.76s CPU      0.82s WALL (       1 calls)
     electrons    :    386.96s CPU    389.38s WALL (      50 calls)
     update_pot   :     24.92s CPU     25.51s WALL (      50 calls)
     forces       :      9.93s CPU     10.13s WALL (      50 calls)

     Called by init_run:
     wfcinit      :      0.06s CPU      0.07s WALL (       1 calls)
     wfcinit:atom :      0.00s CPU      0.00s WALL (       1 calls)
     wfcinit:wfcr :      0.06s CPU      0.06s WALL (       1 calls)
     potinit      :      0.45s CPU      0.48s WALL (       1 calls)
     hinit0       :      0.03s CPU      0.04s WALL (       1 calls)

     Called by electrons:
     c_bands      :     88.63s CPU     88.76s WALL (     486 calls)
     sum_band     :     49.82s CPU     50.21s WALL (     486 calls)
     v_of_rho     :    214.21s CPU    214.95s WALL (     514 calls)
     v_h          :     13.28s CPU     13.30s WALL (     514 calls)
     v_xc         :    200.93s CPU    201.65s WALL (     514 calls)
     newd         :     16.45s CPU     16.50s WALL (     514 calls)
     mix_rho      :     34.69s CPU     35.84s WALL (     486 calls)

     Called by c_bands:
     init_us_2    :      1.48s CPU      1.49s WALL (     973 calls)
     init_us_2:cp :      1.48s CPU      1.49s WALL (     973 calls)
     cegterg      :     87.62s CPU     87.75s WALL (     486 calls)

     Called by sum_band:
     sum_band:wei :      0.00s CPU      0.00s WALL (     486 calls)
     sum_band:loo :     14.72s CPU     14.75s WALL (     486 calls)
     sum_band:buf :      0.00s CPU      0.00s WALL (     486 calls)
     sum_band:ini :      0.76s CPU      0.76s WALL (     486 calls)
     sum_band:cal :      0.21s CPU      0.21s WALL (     486 calls)
     sum_band:bec :      0.00s CPU      0.00s WALL (     486 calls)
     addusdens    :      4.79s CPU      5.06s WALL (     486 calls)
     addusd:skk   :      1.34s CPU      1.43s WALL (     486 calls)
     addusd:dgemm :      1.03s CPU      1.10s WALL (     486 calls)
     addusd:qvan2 :      1.29s CPU      1.36s WALL (     486 calls)

     Called by *egterg:
     cdiaghg      :      0.04s CPU      0.04s WALL (    1861 calls)
     cegterg:over :      1.22s CPU      1.22s WALL (    1447 calls)
     cegterg:upda :      0.90s CPU      0.91s WALL (    1447 calls)
     cegterg:last :      1.81s CPU      1.82s WALL (    1131 calls)
     h_psi        :     81.72s CPU     81.83s WALL (    1934 calls)
     s_psi        :      0.50s CPU      0.50s WALL (    1934 calls)
     g_psi        :      0.38s CPU      0.38s WALL (    1447 calls)

     Called by h_psi:
     h_psi:calbec :      0.65s CPU      0.66s WALL (    1934 calls)
     vloc_psi     :     80.24s CPU     80.34s WALL (    1934 calls)
     add_vuspsi   :      0.54s CPU      0.54s WALL (    1934 calls)

     General routines
     calbec       :      0.92s CPU      0.93s WALL (    2620 calls)
     fft          :    114.47s CPU    114.58s WALL (    5827 calls)
     ffts         :      9.91s CPU      9.92s WALL (     486 calls)
     fftw         :     83.58s CPU     83.69s WALL (    6854 calls)


     PWSCF        :   7m 6.20s CPU   7m 9.51s WALL


   This run was terminated on:   3:35:54  28Feb2022            

=------------------------------------------------------------------------------=
   JOB DONE.
=------------------------------------------------------------------------------=
