
     Program PWSCF v.7.0 starts on 28Feb2022 at 23:59: 1 

     This program is part of the open-source Quantum ESPRESSO suite
     for quantum simulation of materials; please cite
         "P. Giannozzi et al., J. Phys.:Condens. Matter 21 395502 (2009);
         "P. Giannozzi et al., J. Phys.:Condens. Matter 29 465901 (2017);
         "P. Giannozzi et al., J. Chem. Phys. 152 154105 (2020);
          URL http://www.quantum-espresso.org", 
     in publications or presentations arising from this work. More details at
     http://www.quantum-espresso.org/quote

     Serial version
     1218 MiB available memory on the printing compute node when the environment starts

     Waiting for input...
     Reading input from standard input

     Current dimensions of program PWSCF are:
     Max number of different atomic species (ntypx) = 10
     Max number of k-points (npk) =  40000
     Max angular momentum in pseudopotentials (lmaxx) =  4

    ============================================================
    |  pseudopotential report for atomic species:  1           |
    |        pseudo potential version   7   3   2              |
    ------------------------------------------------------------
    |  oxygen              PBE                  exchange-corr  |
    |  z =   8.    zv( 1) =   6.    exfact =   5.00000         |
    |  ifpcor =  0           atomic energy = -31.58351 Ry      |
    |  index    orbital      occupation    energy              |
    |    1        200           2.00       -1.76               |
    |    2        210           4.00       -0.66               |
    |  rinner =  0.7000  0.7000  0.7000                        |
    |    new generation scheme:                                |
    |    nbeta =  4     kkbeta =  519     rcloc =    1.0000    |
    |    ibeta    l     epsilon   rcut                         |
    |      1       0      -1.76   1.20                         |
    |      2       0      -0.66   1.20                         |
    |      3       1      -1.76   1.20                         |
    |      4       1      -0.66   1.20                         |
    ============================================================

     G-vector sticks info
     --------------------
     sticks:   dense  smooth     PW     G-vecs:    dense   smooth      PW
     Sum        9769    9769   2593               727223   727223   99873

     Using Slab Decomposition



     bravais-lattice index     =            1
     lattice parameter (alat)  =      32.0000  a.u.
     unit-cell volume          =   32768.0000 (a.u.)^3
     number of atoms/cell      =            2
     number of atomic types    =            1
     number of electrons       =        12.00
     number of Kohn-Sham states=            8
     kinetic-energy cutoff     =      30.0000  Ry
     charge density cutoff     =     120.0000  Ry
     scf convergence threshold =      1.0E-08
     mixing beta               =       0.7000
     number of iterations used =            8  plain     mixing
     Exchange-correlation= PBE
                           (   1   4   3   4   0   0   0)

     celldm(1)=  32.000000  celldm(2)=   0.000000  celldm(3)=   0.000000
     celldm(4)=   0.000000  celldm(5)=   0.000000  celldm(6)=   0.000000

     crystal axes: (cart. coord. in units of alat)
               a(1) = (   1.000000   0.000000   0.000000 )  
               a(2) = (   0.000000   1.000000   0.000000 )  
               a(3) = (   0.000000   0.000000   1.000000 )  

     reciprocal axes: (cart. coord. in units 2 pi/alat)
               b(1) = (  1.000000  0.000000  0.000000 )  
               b(2) = (  0.000000  1.000000  0.000000 )  
               b(3) = (  0.000000  0.000000  1.000000 )  


     PseudoPot. # 1 for ox read from file:
     /root/q-e/pseudo/O_US.van
     MD5 check sum: 7e325307d184e51bd80757047dcf04f9
     Pseudo is Ultrasoft, Zval =  6.0
     Generated by Vanderbilt code, v. 7.3.2
     Using radial grid of  737 points,  4 beta functions with: 
                l(1) =   0
                l(2) =   0
                l(3) =   1
                l(4) =   1
     Q(r) pseudized with  8 coefficients,  rinner =    0.700   0.700   0.700


     atomic species   valence    mass     pseudopotential
        O              6.00    15.99900     ox( 1.00)

      8 Sym. Ops. (no inversion) found


                                    s                        frac. trans.

      isym =  1     identity                                     

 cryst.   s( 1) = (     1          0          0      )
                  (     0          1          0      )
                  (     0          0          1      )

 cart.    s( 1) = (  1.0000000  0.0000000  0.0000000 )
                  (  0.0000000  1.0000000  0.0000000 )
                  (  0.0000000  0.0000000  1.0000000 )


      isym =  2     180 deg rotation - cart. axis [1,0,0]        

 cryst.   s( 2) = (     1          0          0      )
                  (     0         -1          0      )
                  (     0          0         -1      )

 cart.    s( 2) = (  1.0000000  0.0000000  0.0000000 )
                  (  0.0000000 -1.0000000  0.0000000 )
                  (  0.0000000  0.0000000 -1.0000000 )


      isym =  3      90 deg rotation - cart. axis [-1,0,0]       

 cryst.   s( 3) = (     1          0          0      )
                  (     0          0         -1      )
                  (     0          1          0      )

 cart.    s( 3) = (  1.0000000  0.0000000  0.0000000 )
                  (  0.0000000  0.0000000  1.0000000 )
                  (  0.0000000 -1.0000000  0.0000000 )


      isym =  4      90 deg rotation - cart. axis [1,0,0]        

 cryst.   s( 4) = (     1          0          0      )
                  (     0          0          1      )
                  (     0         -1          0      )

 cart.    s( 4) = (  1.0000000  0.0000000  0.0000000 )
                  (  0.0000000  0.0000000 -1.0000000 )
                  (  0.0000000  1.0000000  0.0000000 )


      isym =  5     inv. 180 deg rotation - cart. axis [0,0,1]   

 cryst.   s( 5) = (     1          0          0      )
                  (     0          1          0      )
                  (     0          0         -1      )

 cart.    s( 5) = (  1.0000000  0.0000000  0.0000000 )
                  (  0.0000000  1.0000000  0.0000000 )
                  (  0.0000000  0.0000000 -1.0000000 )


      isym =  6     inv. 180 deg rotation - cart. axis [0,1,0]   

 cryst.   s( 6) = (     1          0          0      )
                  (     0         -1          0      )
                  (     0          0          1      )

 cart.    s( 6) = (  1.0000000  0.0000000  0.0000000 )
                  (  0.0000000 -1.0000000  0.0000000 )
                  (  0.0000000  0.0000000  1.0000000 )


      isym =  7     inv. 180 deg rotation - cart. axis [0,1,1]   

 cryst.   s( 7) = (     1          0          0      )
                  (     0          0         -1      )
                  (     0         -1          0      )

 cart.    s( 7) = (  1.0000000  0.0000000  0.0000000 )
                  (  0.0000000  0.0000000 -1.0000000 )
                  (  0.0000000 -1.0000000  0.0000000 )


      isym =  8     inv. 180 deg rotation - cart. axis [0,1,-1]  

 cryst.   s( 8) = (     1          0          0      )
                  (     0          0          1      )
                  (     0          1          0      )

 cart.    s( 8) = (  1.0000000  0.0000000  0.0000000 )
                  (  0.0000000  0.0000000  1.0000000 )
                  (  0.0000000  1.0000000  0.0000000 )


     point group C_4v (4mm) 
     there are  5 classes
     the character table:

       E     2C4   C2    2s_v  2s_d 
A_1    1.00  1.00  1.00  1.00  1.00
A_2    1.00  1.00  1.00 -1.00 -1.00
B_1    1.00 -1.00  1.00  1.00 -1.00
B_2    1.00 -1.00  1.00 -1.00  1.00
E      2.00  0.00 -2.00  0.00  0.00

     the symmetry operations in each class and the name of the first element:

     E        1
          identity                                               
     2C4      3    4
           90 deg rotation - cart. axis [-1,0,0]                 
     C2       2
          180 deg rotation - cart. axis [1,0,0]                  
     2s_v     5    6
          inv. 180 deg rotation - cart. axis [0,0,1]             
     2s_d     7    8
          inv. 180 deg rotation - cart. axis [0,1,1]             

   Cartesian axes

     site n.     atom                  positions (alat units)
         1           O   tau(   1) = (   0.0000000   0.0000000   0.0000000  )
         2           O   tau(   2) = (   0.0707737   0.0000000   0.0000000  )

   Crystallographic axes

     site n.     atom                  positions (cryst. coord.)
         1           O   tau(   1) = (  0.0000000  0.0000000  0.0000000  )
         2           O   tau(   2) = (  0.0707737  0.0000000  0.0000000  )

     number of k points=     1
                       cart. coord. in units 2pi/alat
        k(    1) = (  -0.5000000  -0.5000000  -0.5000000), wk =   2.0000000

                       cryst. coord.
        k(    1) = (  -0.5000000  -0.5000000  -0.5000000), wk =   2.0000000

     Dense  grid:   727223 G-vectors     FFT dimensions: ( 120, 120, 120)

     Dynamical RAM for                 wfc:      11.10 MB

     Dynamical RAM for     wfc (w. buffer):      11.10 MB

     Dynamical RAM for           str. fact:      11.10 MB

     Dynamical RAM for           local pot:       0.00 MB

     Dynamical RAM for          nlocal pot:      22.20 MB

     Dynamical RAM for                qrad:       0.25 MB

     Dynamical RAM for          rho,v,vnew:      72.84 MB

     Dynamical RAM for               rhoin:      24.28 MB

     Dynamical RAM for            rho*nmix:     177.54 MB

     Dynamical RAM for           G-vectors:      47.16 MB

     Dynamical RAM for          h,s,v(r/c):       0.01 MB

     Dynamical RAM for          <psi|beta>:       0.00 MB

     Dynamical RAM for                 psi:      22.20 MB

     Dynamical RAM for                hpsi:      22.20 MB

     Dynamical RAM for                spsi:      22.20 MB

     Dynamical RAM for      wfcinit/wfcrot:      22.20 MB

     Dynamical RAM for           addusdens:     499.34 MB

     Estimated static dynamical RAM per process >     277.04 MB

     Estimated max dynamical RAM per process >     953.93 MB

     Initial potential from superposition of free atoms

     starting charge      12.0000, renormalised to      12.0000

     negative rho (up, down):  1.102E-02 0.000E+00
     Starting wfcs are    8 randomized atomic wfcs

     total cpu time spent up to now is        2.3 secs

     Self-consistent Calculation

     iteration #  1     ecut=    30.00 Ry     beta= 0.70
     Davidson diagonalization with overlap

---- Real-time Memory Report at c_bands before calling an iterative solver
           726 MiB given to the printing process from OS
             0 MiB allocation reported by mallinfo(arena+hblkhd)
           920 MiB available memory on the node where the printing process lives
------------------
     ethr =  1.00E-02,  avg # of iterations =  6.0

     Threshold (ethr) on eigenvalues was too large:
     Diagonalizing with lowered threshold

     Davidson diagonalization with overlap

---- Real-time Memory Report at c_bands before calling an iterative solver
           805 MiB given to the printing process from OS
             0 MiB allocation reported by mallinfo(arena+hblkhd)
           873 MiB available memory on the node where the printing process lives
------------------
     ethr =  4.73E-04,  avg # of iterations =  7.0

     negative rho (up, down):  3.139E-02 0.000E+00

     total cpu time spent up to now is        8.8 secs

     total energy              =     -63.75238873 Ry
     estimated scf accuracy    <       0.05524051 Ry

     iteration #  2     ecut=    30.00 Ry     beta= 0.70
     Davidson diagonalization with overlap

---- Real-time Memory Report at c_bands before calling an iterative solver
           927 MiB given to the printing process from OS
             0 MiB allocation reported by mallinfo(arena+hblkhd)
           700 MiB available memory on the node where the printing process lives
------------------
     ethr =  4.60E-04,  avg # of iterations =  2.0

     negative rho (up, down):  4.079E-02 0.000E+00

     total cpu time spent up to now is       12.6 secs

     total energy              =     -63.76250649 Ry
     estimated scf accuracy    <       0.00163501 Ry

     iteration #  3     ecut=    30.00 Ry     beta= 0.70
     Davidson diagonalization with overlap

---- Real-time Memory Report at c_bands before calling an iterative solver
           950 MiB given to the printing process from OS
             0 MiB allocation reported by mallinfo(arena+hblkhd)
           678 MiB available memory on the node where the printing process lives
------------------
     ethr =  1.36E-05,  avg # of iterations =  5.0

     negative rho (up, down):  4.393E-02 0.000E+00

     total cpu time spent up to now is       16.9 secs

     total energy              =     -63.76294034 Ry
     estimated scf accuracy    <       0.00028537 Ry

     iteration #  4     ecut=    30.00 Ry     beta= 0.70
     Davidson diagonalization with overlap

---- Real-time Memory Report at c_bands before calling an iterative solver
           972 MiB given to the printing process from OS
             0 MiB allocation reported by mallinfo(arena+hblkhd)
           656 MiB available memory on the node where the printing process lives
------------------
     ethr =  2.38E-06,  avg # of iterations =  2.0

     negative rho (up, down):  4.603E-02 0.000E+00

     total cpu time spent up to now is       20.8 secs

     total energy              =     -63.76297307 Ry
     estimated scf accuracy    <       0.00002227 Ry

     iteration #  5     ecut=    30.00 Ry     beta= 0.70
     Davidson diagonalization with overlap

---- Real-time Memory Report at c_bands before calling an iterative solver
           994 MiB given to the printing process from OS
             0 MiB allocation reported by mallinfo(arena+hblkhd)
           634 MiB available memory on the node where the printing process lives
------------------
     ethr =  1.86E-07,  avg # of iterations =  3.0

     negative rho (up, down):  4.603E-02 0.000E+00

     total cpu time spent up to now is       24.8 secs

     total energy              =     -63.76297592 Ry
     estimated scf accuracy    <       0.00001182 Ry

     iteration #  6     ecut=    30.00 Ry     beta= 0.70
     Davidson diagonalization with overlap

---- Real-time Memory Report at c_bands before calling an iterative solver
          1016 MiB given to the printing process from OS
             0 MiB allocation reported by mallinfo(arena+hblkhd)
           612 MiB available memory on the node where the printing process lives
------------------
     ethr =  9.85E-08,  avg # of iterations =  1.0

     negative rho (up, down):  4.602E-02 0.000E+00

     total cpu time spent up to now is       28.3 secs

     total energy              =     -63.76297548 Ry
     estimated scf accuracy    <       0.00000219 Ry

     iteration #  7     ecut=    30.00 Ry     beta= 0.70
     Davidson diagonalization with overlap

---- Real-time Memory Report at c_bands before calling an iterative solver
          1038 MiB given to the printing process from OS
             0 MiB allocation reported by mallinfo(arena+hblkhd)
           589 MiB available memory on the node where the printing process lives
------------------
     ethr =  1.82E-08,  avg # of iterations =  2.0

     negative rho (up, down):  4.603E-02 0.000E+00

     total cpu time spent up to now is       32.3 secs

     total energy              =     -63.76297606 Ry
     estimated scf accuracy    <       0.00000141 Ry

     iteration #  8     ecut=    30.00 Ry     beta= 0.70
     Davidson diagonalization with overlap

---- Real-time Memory Report at c_bands before calling an iterative solver
          1061 MiB given to the printing process from OS
             0 MiB allocation reported by mallinfo(arena+hblkhd)
           567 MiB available memory on the node where the printing process lives
------------------
     ethr =  1.17E-08,  avg # of iterations =  2.0

     negative rho (up, down):  4.603E-02 0.000E+00

     total cpu time spent up to now is       36.0 secs

     total energy              =     -63.76297617 Ry
     estimated scf accuracy    <       0.00000006 Ry

     iteration #  9     ecut=    30.00 Ry     beta= 0.70
     Davidson diagonalization with overlap

---- Real-time Memory Report at c_bands before calling an iterative solver
          1083 MiB given to the printing process from OS
             0 MiB allocation reported by mallinfo(arena+hblkhd)
           545 MiB available memory on the node where the printing process lives
------------------
     ethr =  5.39E-10,  avg # of iterations =  2.0

     negative rho (up, down):  4.603E-02 0.000E+00

     total cpu time spent up to now is       39.8 secs

     total energy              =     -63.76297618 Ry
     estimated scf accuracy    <       0.00000001 Ry

     iteration # 10     ecut=    30.00 Ry     beta= 0.70
     Davidson diagonalization with overlap

---- Real-time Memory Report at c_bands before calling an iterative solver
          1105 MiB given to the printing process from OS
             0 MiB allocation reported by mallinfo(arena+hblkhd)
           523 MiB available memory on the node where the printing process lives
------------------
     ethr =  9.04E-11,  avg # of iterations =  3.0

     negative rho (up, down):  4.603E-02 0.000E+00

     total cpu time spent up to now is       43.6 secs

     End of self-consistent calculation

          k =-0.5000-0.5000-0.5000 ( 90968 PWs)   bands (ev):

   -32.8672 -19.6451 -13.1479 -12.8632 -12.8632  -5.7413  -5.7413  -0.3431

     occupation numbers 
     1.0000   1.0000   1.0000   1.0000   1.0000   1.0000   0.0000   0.0000

     highest occupied, lowest unoccupied level (ev):    -5.7413   -5.7413

!    total energy              =     -63.76297618 Ry
     estimated scf accuracy    <          1.5E-10 Ry

     The total energy is the sum of the following terms:
     one-electron contribution =    -141.82139217 Ry
     hartree contribution      =      72.58538305 Ry
     xc contribution           =     -13.57439265 Ry
     ewald contribution        =      19.04742560 Ry

     convergence has been achieved in  10 iterations

     Writing all to output data dir ./.save/

     init_run     :      2.10s CPU      2.24s WALL (       1 calls)
     electrons    :     38.92s CPU     41.36s WALL (       1 calls)

     Called by init_run:
     wfcinit      :      0.59s CPU      0.60s WALL (       1 calls)
     wfcinit:atom :      0.01s CPU      0.01s WALL (       1 calls)
     wfcinit:wfcr :      0.54s CPU      0.54s WALL (       1 calls)
     potinit      :      0.72s CPU      0.76s WALL (       1 calls)
     hinit0       :      0.13s CPU      0.14s WALL (       1 calls)

     Called by electrons:
     c_bands      :     17.10s CPU     17.13s WALL (      11 calls)
     sum_band     :      8.28s CPU      9.41s WALL (      11 calls)
     v_of_rho     :      9.08s CPU      9.25s WALL (      11 calls)
     v_h          :      0.56s CPU      0.56s WALL (      11 calls)
     v_xc         :      8.52s CPU      8.69s WALL (      11 calls)
     newd         :      4.00s CPU      5.15s WALL (      11 calls)
     mix_rho      :      1.24s CPU      1.30s WALL (      11 calls)

     Called by c_bands:
     init_us_2    :      0.30s CPU      0.30s WALL (      23 calls)
     init_us_2:cp :      0.30s CPU      0.30s WALL (      23 calls)
     cegterg      :     16.79s CPU     16.82s WALL (      11 calls)

     Called by sum_band:
     sum_band:wei :      0.00s CPU      0.00s WALL (      11 calls)
     sum_band:loo :      2.84s CPU      2.84s WALL (      11 calls)
     sum_band:buf :      0.00s CPU      0.00s WALL (      11 calls)
     sum_band:ini :      0.14s CPU      0.14s WALL (      11 calls)
     sum_band:cal :      0.18s CPU      0.18s WALL (      11 calls)
     sum_band:bec :      0.00s CPU      0.00s WALL (      11 calls)
     addusdens    :      4.14s CPU      5.26s WALL (      11 calls)
     addusd:skk   :      0.05s CPU      0.05s WALL (      11 calls)
     addusd:dgemm :      1.37s CPU      2.32s WALL (      11 calls)
     addusd:qvan2 :      1.72s CPU      1.73s WALL (      11 calls)

     Called by *egterg:
     cdiaghg      :      0.00s CPU      0.00s WALL (      45 calls)
     cegterg:over :      0.57s CPU      0.57s WALL (      35 calls)
     cegterg:upda :      0.32s CPU      0.32s WALL (      35 calls)
     cegterg:last :      0.67s CPU      0.67s WALL (      23 calls)
     h_psi        :     14.98s CPU     15.00s WALL (      47 calls)
     s_psi        :      0.42s CPU      0.43s WALL (      47 calls)
     g_psi        :      0.05s CPU      0.05s WALL (      35 calls)

     Called by h_psi:
     h_psi:calbec :      0.51s CPU      0.51s WALL (      47 calls)
     vloc_psi     :     14.00s CPU     14.02s WALL (      47 calls)
     add_vuspsi   :      0.43s CPU      0.43s WALL (      47 calls)

     General routines
     calbec       :      0.69s CPU      0.69s WALL (      58 calls)
     fft          :      4.81s CPU      4.81s WALL (     121 calls)
     ffts         :      0.45s CPU      0.45s WALL (      11 calls)
     fftw         :     14.74s CPU     14.77s WALL (     582 calls)


     PWSCF        :     41.12s CPU     43.74s WALL


   This run was terminated on:  23:59:45  28Feb2022            

=------------------------------------------------------------------------------=
   JOB DONE.
=------------------------------------------------------------------------------=
