
     Program PWSCF v.7.0 starts on 28Feb2022 at 22:11: 3 

     This program is part of the open-source Quantum ESPRESSO suite
     for quantum simulation of materials; please cite
         "P. Giannozzi et al., J. Phys.:Condens. Matter 21 395502 (2009);
         "P. Giannozzi et al., J. Phys.:Condens. Matter 29 465901 (2017);
         "P. Giannozzi et al., J. Chem. Phys. 152 154105 (2020);
          URL http://www.quantum-espresso.org", 
     in publications or presentations arising from this work. More details at
     http://www.quantum-espresso.org/quote

     Serial version
     1128 MiB available memory on the printing compute node when the environment starts

     Waiting for input...
     Reading input from standard input

     Current dimensions of program PWSCF are:
     Max number of different atomic species (ntypx) = 10
     Max number of k-points (npk) =  40000
     Max angular momentum in pseudopotentials (lmaxx) =  4

    ============================================================
    |  pseudopotential report for atomic species:  1           |
    |        pseudo potential version   7   3   2              |
    ------------------------------------------------------------
    |  oxygen              PBE                  exchange-corr  |
    |  z =   8.    zv( 1) =   6.    exfact =   5.00000         |
    |  ifpcor =  0           atomic energy = -31.58351 Ry      |
    |  index    orbital      occupation    energy              |
    |    1        200           2.00       -1.76               |
    |    2        210           4.00       -0.66               |
    |  rinner =  0.7000  0.7000  0.7000                        |
    |    new generation scheme:                                |
    |    nbeta =  4     kkbeta =  519     rcloc =    1.0000    |
    |    ibeta    l     epsilon   rcut                         |
    |      1       0      -1.76   1.20                         |
    |      2       0      -0.66   1.20                         |
    |      3       1      -1.76   1.20                         |
    |      4       1      -0.66   1.20                         |
    ============================================================

     G-vector sticks info
     --------------------
     sticks:   dense  smooth     PW     G-vecs:    dense   smooth      PW
     Sum        4897    4897   1321               257295   257295   36377

     Using Slab Decomposition



     bravais-lattice index     =            1
     lattice parameter (alat)  =      32.0000  a.u.
     unit-cell volume          =   32768.0000 (a.u.)^3
     number of atoms/cell      =            2
     number of atomic types    =            1
     number of electrons       =        12.00
     number of Kohn-Sham states=            6
     kinetic-energy cutoff     =      15.0000  Ry
     charge density cutoff     =      60.0000  Ry
     scf convergence threshold =      1.0E-08
     mixing beta               =       0.7000
     number of iterations used =            8  plain     mixing
     Exchange-correlation= PBE
                           (   1   4   3   4   0   0   0)

     celldm(1)=  32.000000  celldm(2)=   0.000000  celldm(3)=   0.000000
     celldm(4)=   0.000000  celldm(5)=   0.000000  celldm(6)=   0.000000

     crystal axes: (cart. coord. in units of alat)
               a(1) = (   1.000000   0.000000   0.000000 )  
               a(2) = (   0.000000   1.000000   0.000000 )  
               a(3) = (   0.000000   0.000000   1.000000 )  

     reciprocal axes: (cart. coord. in units 2 pi/alat)
               b(1) = (  1.000000  0.000000  0.000000 )  
               b(2) = (  0.000000  1.000000  0.000000 )  
               b(3) = (  0.000000  0.000000  1.000000 )  


     PseudoPot. # 1 for ox read from file:
     /root/q-e/pseudo/O_US.van
     MD5 check sum: 7e325307d184e51bd80757047dcf04f9
     Pseudo is Ultrasoft, Zval =  6.0
     Generated by Vanderbilt code, v. 7.3.2
     Using radial grid of  737 points,  4 beta functions with: 
                l(1) =   0
                l(2) =   0
                l(3) =   1
                l(4) =   1
     Q(r) pseudized with  8 coefficients,  rinner =    0.700   0.700   0.700


     atomic species   valence    mass     pseudopotential
        O              6.00    15.99900     ox( 1.00)

      8 Sym. Ops. (no inversion) found


                                    s                        frac. trans.

      isym =  1     identity                                     

 cryst.   s( 1) = (     1          0          0      )
                  (     0          1          0      )
                  (     0          0          1      )

 cart.    s( 1) = (  1.0000000  0.0000000  0.0000000 )
                  (  0.0000000  1.0000000  0.0000000 )
                  (  0.0000000  0.0000000  1.0000000 )


      isym =  2     180 deg rotation - cart. axis [1,0,0]        

 cryst.   s( 2) = (     1          0          0      )
                  (     0         -1          0      )
                  (     0          0         -1      )

 cart.    s( 2) = (  1.0000000  0.0000000  0.0000000 )
                  (  0.0000000 -1.0000000  0.0000000 )
                  (  0.0000000  0.0000000 -1.0000000 )


      isym =  3      90 deg rotation - cart. axis [-1,0,0]       

 cryst.   s( 3) = (     1          0          0      )
                  (     0          0         -1      )
                  (     0          1          0      )

 cart.    s( 3) = (  1.0000000  0.0000000  0.0000000 )
                  (  0.0000000  0.0000000  1.0000000 )
                  (  0.0000000 -1.0000000  0.0000000 )


      isym =  4      90 deg rotation - cart. axis [1,0,0]        

 cryst.   s( 4) = (     1          0          0      )
                  (     0          0          1      )
                  (     0         -1          0      )

 cart.    s( 4) = (  1.0000000  0.0000000  0.0000000 )
                  (  0.0000000  0.0000000 -1.0000000 )
                  (  0.0000000  1.0000000  0.0000000 )


      isym =  5     inv. 180 deg rotation - cart. axis [0,0,1]   

 cryst.   s( 5) = (     1          0          0      )
                  (     0          1          0      )
                  (     0          0         -1      )

 cart.    s( 5) = (  1.0000000  0.0000000  0.0000000 )
                  (  0.0000000  1.0000000  0.0000000 )
                  (  0.0000000  0.0000000 -1.0000000 )


      isym =  6     inv. 180 deg rotation - cart. axis [0,1,0]   

 cryst.   s( 6) = (     1          0          0      )
                  (     0         -1          0      )
                  (     0          0          1      )

 cart.    s( 6) = (  1.0000000  0.0000000  0.0000000 )
                  (  0.0000000 -1.0000000  0.0000000 )
                  (  0.0000000  0.0000000  1.0000000 )


      isym =  7     inv. 180 deg rotation - cart. axis [0,1,1]   

 cryst.   s( 7) = (     1          0          0      )
                  (     0          0         -1      )
                  (     0         -1          0      )

 cart.    s( 7) = (  1.0000000  0.0000000  0.0000000 )
                  (  0.0000000  0.0000000 -1.0000000 )
                  (  0.0000000 -1.0000000  0.0000000 )


      isym =  8     inv. 180 deg rotation - cart. axis [0,1,-1]  

 cryst.   s( 8) = (     1          0          0      )
                  (     0          0          1      )
                  (     0          1          0      )

 cart.    s( 8) = (  1.0000000  0.0000000  0.0000000 )
                  (  0.0000000  0.0000000  1.0000000 )
                  (  0.0000000  1.0000000  0.0000000 )


     point group C_4v (4mm) 
     there are  5 classes
     the character table:

       E     2C4   C2    2s_v  2s_d 
A_1    1.00  1.00  1.00  1.00  1.00
A_2    1.00  1.00  1.00 -1.00 -1.00
B_1    1.00 -1.00  1.00  1.00 -1.00
B_2    1.00 -1.00  1.00 -1.00  1.00
E      2.00  0.00 -2.00  0.00  0.00

     the symmetry operations in each class and the name of the first element:

     E        1
          identity                                               
     2C4      3    4
           90 deg rotation - cart. axis [-1,0,0]                 
     C2       2
          180 deg rotation - cart. axis [1,0,0]                  
     2s_v     5    6
          inv. 180 deg rotation - cart. axis [0,0,1]             
     2s_d     7    8
          inv. 180 deg rotation - cart. axis [0,1,1]             

   Cartesian axes

     site n.     atom                  positions (alat units)
         1           O   tau(   1) = (   0.0000000   0.0000000   0.0000000  )
         2           O   tau(   2) = (   0.0707737   0.0000000   0.0000000  )

   Crystallographic axes

     site n.     atom                  positions (cryst. coord.)
         1           O   tau(   1) = (  0.0000000  0.0000000  0.0000000  )
         2           O   tau(   2) = (  0.0707737  0.0000000  0.0000000  )

     number of k points=     1
                       cart. coord. in units 2pi/alat
        k(    1) = (  -0.5000000  -0.5000000  -0.5000000), wk =   2.0000000

                       cryst. coord.
        k(    1) = (  -0.5000000  -0.5000000  -0.5000000), wk =   2.0000000

     Dense  grid:   257295 G-vectors     FFT dimensions: (  80,  80,  80)

     Dynamical RAM for                 wfc:       2.94 MB

     Dynamical RAM for     wfc (w. buffer):       2.94 MB

     Dynamical RAM for           str. fact:       3.93 MB

     Dynamical RAM for           local pot:       0.00 MB

     Dynamical RAM for          nlocal pot:       7.85 MB

     Dynamical RAM for                qrad:       0.18 MB

     Dynamical RAM for          rho,v,vnew:      23.50 MB

     Dynamical RAM for               rhoin:       7.83 MB

     Dynamical RAM for            rho*nmix:      62.82 MB

     Dynamical RAM for           G-vectors:      16.69 MB

     Dynamical RAM for          h,s,v(r/c):       0.01 MB

     Dynamical RAM for          <psi|beta>:       0.00 MB

     Dynamical RAM for                 psi:       5.89 MB

     Dynamical RAM for                hpsi:       5.89 MB

     Dynamical RAM for                spsi:       5.89 MB

     Dynamical RAM for      wfcinit/wfcrot:       7.85 MB

     Dynamical RAM for           addusdens:     176.67 MB

     Estimated static dynamical RAM per process >      90.29 MB

     Estimated max dynamical RAM per process >     329.78 MB

     Initial potential from superposition of free atoms

     starting charge      12.0000, renormalised to      12.0000

     negative rho (up, down):  9.866E-01 0.000E+00
     Starting wfcs are    8 randomized atomic wfcs

     total cpu time spent up to now is        0.8 secs

     Self-consistent Calculation

     iteration #  1     ecut=    15.00 Ry     beta= 0.70
     Davidson diagonalization with overlap

---- Real-time Memory Report at c_bands before calling an iterative solver
           262 MiB given to the printing process from OS
             0 MiB allocation reported by mallinfo(arena+hblkhd)
          1026 MiB available memory on the node where the printing process lives
------------------
     ethr =  1.00E-02,  avg # of iterations =  2.0

     negative rho (up, down):  9.546E-01 0.000E+00

     total cpu time spent up to now is        1.8 secs

     total energy              =     -62.69150984 Ry
     estimated scf accuracy    <       0.18211642 Ry

     iteration #  2     ecut=    15.00 Ry     beta= 0.70
     Davidson diagonalization with overlap

---- Real-time Memory Report at c_bands before calling an iterative solver
           332 MiB given to the printing process from OS
             0 MiB allocation reported by mallinfo(arena+hblkhd)
           948 MiB available memory on the node where the printing process lives
------------------
     ethr =  1.52E-03,  avg # of iterations =  2.0

     negative rho (up, down):  9.978E-01 0.000E+00

     total cpu time spent up to now is        2.8 secs

     total energy              =     -62.72823007 Ry
     estimated scf accuracy    <       0.02113324 Ry

     iteration #  3     ecut=    15.00 Ry     beta= 0.70
     Davidson diagonalization with overlap

---- Real-time Memory Report at c_bands before calling an iterative solver
           340 MiB given to the printing process from OS
             0 MiB allocation reported by mallinfo(arena+hblkhd)
           940 MiB available memory on the node where the printing process lives
------------------
     ethr =  1.76E-04,  avg # of iterations =  2.0

     negative rho (up, down):  1.011E+00 0.000E+00

     total cpu time spent up to now is        3.7 secs

     total energy              =     -62.73114949 Ry
     estimated scf accuracy    <       0.00096499 Ry

     iteration #  4     ecut=    15.00 Ry     beta= 0.70
     Davidson diagonalization with overlap

---- Real-time Memory Report at c_bands before calling an iterative solver
           348 MiB given to the printing process from OS
             0 MiB allocation reported by mallinfo(arena+hblkhd)
           932 MiB available memory on the node where the printing process lives
------------------
     ethr =  8.04E-06,  avg # of iterations =  2.0

     negative rho (up, down):  1.010E+00 0.000E+00

     total cpu time spent up to now is        4.6 secs

     total energy              =     -62.73118475 Ry
     estimated scf accuracy    <       0.00002681 Ry

     iteration #  5     ecut=    15.00 Ry     beta= 0.70
     Davidson diagonalization with overlap

---- Real-time Memory Report at c_bands before calling an iterative solver
           356 MiB given to the printing process from OS
             0 MiB allocation reported by mallinfo(arena+hblkhd)
           925 MiB available memory on the node where the printing process lives
------------------
     ethr =  2.23E-07,  avg # of iterations =  2.0

     negative rho (up, down):  1.010E+00 0.000E+00

     total cpu time spent up to now is        5.5 secs

     total energy              =     -62.73118488 Ry
     estimated scf accuracy    <       0.00000271 Ry

     iteration #  6     ecut=    15.00 Ry     beta= 0.70
     Davidson diagonalization with overlap

---- Real-time Memory Report at c_bands before calling an iterative solver
           364 MiB given to the printing process from OS
             0 MiB allocation reported by mallinfo(arena+hblkhd)
           917 MiB available memory on the node where the printing process lives
------------------
     ethr =  2.26E-08,  avg # of iterations =  2.0

     negative rho (up, down):  1.010E+00 0.000E+00

     total cpu time spent up to now is        6.5 secs

     total energy              =     -62.73118516 Ry
     estimated scf accuracy    <       0.00000073 Ry

     iteration #  7     ecut=    15.00 Ry     beta= 0.70
     Davidson diagonalization with overlap

---- Real-time Memory Report at c_bands before calling an iterative solver
           371 MiB given to the printing process from OS
             0 MiB allocation reported by mallinfo(arena+hblkhd)
           909 MiB available memory on the node where the printing process lives
------------------
     ethr =  6.05E-09,  avg # of iterations =  2.0

     negative rho (up, down):  1.010E+00 0.000E+00

     total cpu time spent up to now is        7.4 secs

     total energy              =     -62.73118484 Ry
     estimated scf accuracy    <       0.00000005 Ry

     iteration #  8     ecut=    15.00 Ry     beta= 0.70
     Davidson diagonalization with overlap

---- Real-time Memory Report at c_bands before calling an iterative solver
           379 MiB given to the printing process from OS
             0 MiB allocation reported by mallinfo(arena+hblkhd)
           901 MiB available memory on the node where the printing process lives
------------------
     ethr =  4.33E-10,  avg # of iterations =  2.0

     negative rho (up, down):  1.010E+00 0.000E+00

     total cpu time spent up to now is        8.3 secs

     End of self-consistent calculation

          k =-0.5000-0.5000-0.5000 ( 32200 PWs)   bands (ev):

   -34.3325 -21.3737 -13.4613 -13.0006 -13.0006  -5.7752

     occupation numbers 
     1.0000   1.0000   1.0000   1.0000   1.0000   1.0000

     highest occupied level (ev):    -5.7752

!    total energy              =     -62.73118474 Ry
     estimated scf accuracy    <          4.3E-10 Ry

     The total energy is the sum of the following terms:
     one-electron contribution =    -139.41772218 Ry
     hartree contribution      =      70.92589383 Ry
     xc contribution           =     -13.28678201 Ry
     ewald contribution        =      19.04742562 Ry

     convergence has been achieved in   8 iterations

     Writing all to output data dir ./.save/

     init_run     :      0.73s CPU      0.77s WALL (       1 calls)
     electrons    :      7.40s CPU      7.55s WALL (       1 calls)

     Called by init_run:
     wfcinit      :      0.16s CPU      0.16s WALL (       1 calls)
     wfcinit:atom :      0.00s CPU      0.00s WALL (       1 calls)
     wfcinit:wfcr :      0.14s CPU      0.14s WALL (       1 calls)
     potinit      :      0.30s CPU      0.31s WALL (       1 calls)
     hinit0       :      0.07s CPU      0.07s WALL (       1 calls)

     Called by electrons:
     c_bands      :      2.44s CPU      2.44s WALL (       8 calls)
     sum_band     :      1.57s CPU      1.64s WALL (       8 calls)
     v_of_rho     :      2.43s CPU      2.43s WALL (       9 calls)
     v_h          :      0.12s CPU      0.13s WALL (       9 calls)
     v_xc         :      2.30s CPU      2.31s WALL (       9 calls)
     newd         :      1.00s CPU      1.08s WALL (       9 calls)
     mix_rho      :      0.27s CPU      0.29s WALL (       8 calls)

     Called by c_bands:
     init_us_2    :      0.08s CPU      0.08s WALL (      17 calls)
     init_us_2:cp :      0.08s CPU      0.08s WALL (      17 calls)
     cegterg      :      2.35s CPU      2.36s WALL (       8 calls)

     Called by sum_band:
     sum_band:wei :      0.00s CPU      0.00s WALL (       8 calls)
     sum_band:loo :      0.42s CPU      0.43s WALL (       8 calls)
     sum_band:buf :      0.00s CPU      0.00s WALL (       8 calls)
     sum_band:ini :      0.03s CPU      0.04s WALL (       8 calls)
     sum_band:cal :      0.03s CPU      0.03s WALL (       8 calls)
     sum_band:bec :      0.00s CPU      0.00s WALL (       8 calls)
     addusdens    :      0.88s CPU      0.93s WALL (       8 calls)
     addusd:skk   :      0.01s CPU      0.01s WALL (       8 calls)
     addusd:dgemm :      0.27s CPU      0.31s WALL (       8 calls)
     addusd:qvan2 :      0.35s CPU      0.35s WALL (       8 calls)

     Called by *egterg:
     cdiaghg      :      0.00s CPU      0.00s WALL (      24 calls)
     cegterg:over :      0.07s CPU      0.07s WALL (      16 calls)
     cegterg:upda :      0.04s CPU      0.04s WALL (      16 calls)
     cegterg:last :      0.08s CPU      0.09s WALL (      16 calls)
     h_psi        :      2.16s CPU      2.16s WALL (      25 calls)
     s_psi        :      0.08s CPU      0.08s WALL (      25 calls)
     g_psi        :      0.01s CPU      0.01s WALL (      16 calls)

     Called by h_psi:
     h_psi:calbec :      0.10s CPU      0.10s WALL (      25 calls)
     vloc_psi     :      1.98s CPU      1.98s WALL (      25 calls)
     add_vuspsi   :      0.07s CPU      0.07s WALL (      25 calls)

     General routines
     calbec       :      0.13s CPU      0.13s WALL (      33 calls)
     fft          :      1.06s CPU      1.06s WALL (      98 calls)
     ffts         :      0.09s CPU      0.09s WALL (       8 calls)
     fftw         :      2.11s CPU      2.11s WALL (     320 calls)


     PWSCF        :      8.19s CPU      8.40s WALL


   This run was terminated on:  22:11:11  28Feb2022            

=------------------------------------------------------------------------------=
   JOB DONE.
=------------------------------------------------------------------------------=
