
     Program PWSCF v.7.0 starts on 28Feb2022 at  3:49:18 

     This program is part of the open-source Quantum ESPRESSO suite
     for quantum simulation of materials; please cite
         "P. Giannozzi et al., J. Phys.:Condens. Matter 21 395502 (2009);
         "P. Giannozzi et al., J. Phys.:Condens. Matter 29 465901 (2017);
         "P. Giannozzi et al., J. Chem. Phys. 152 154105 (2020);
          URL http://www.quantum-espresso.org", 
     in publications or presentations arising from this work. More details at
     http://www.quantum-espresso.org/quote

     Serial version
     545 MiB available memory on the printing compute node when the environment starts

     Waiting for input...
     Reading input from standard input

     Current dimensions of program PWSCF are:
     Max number of different atomic species (ntypx) = 10
     Max number of k-points (npk) =  40000
     Max angular momentum in pseudopotentials (lmaxx) =  4

     File ./.update deleted, as requested

     File ./.bfgs deleted, as requested

    ============================================================
    |  pseudopotential report for atomic species:  1           |
    |        pseudo potential version   7   3   2              |
    ------------------------------------------------------------
    |  hydrogen            PBE                  exchange-corr  |
    |  z =   1.    zv( 1) =   1.    exfact =   5.00000         |
    |  ifpcor =  0           atomic energy =  -0.91772 Ry      |
    |  index    orbital      occupation    energy              |
    |    1        100           1.00       -0.48               |
    |  rinner =  0.5000                                        |
    |    new generation scheme:                                |
    |    nbeta =  1     kkbeta =  271     rcloc =    0.6000    |
    |    ibeta    l     epsilon   rcut                         |
    |      1       0      -0.48   0.80                         |
    ============================================================

     IMPORTANT: XC functional enforced from input :
     Exchange-correlation= BLYP
                           (   1   3   1   3   0   0   0)
     Any further DFT definition will be discarded
     Please, verify this is what you really want


     G-vector sticks info
     --------------------
     sticks:   dense  smooth     PW     G-vecs:    dense   smooth      PW
     Sum        7153    7153   1925               455863   455863   63461

     Using Slab Decomposition



     bravais-lattice index     =            1
     lattice parameter (alat)  =      30.0000  a.u.
     unit-cell volume          =   27000.0000 (a.u.)^3
     number of atoms/cell      =            2
     number of atomic types    =            1
     number of electrons       =         2.00
     number of Kohn-Sham states=            2
     kinetic-energy cutoff     =      25.0000  Ry
     charge density cutoff     =     100.0000  Ry
     scf convergence threshold =      1.0E-08
     mixing beta               =       0.7000
     number of iterations used =            8  plain     mixing
     energy convergence thresh.=      1.0E-04
     force convergence thresh. =      1.0E-03
     Exchange-correlation= BLYP
                           (   1   3   1   3   0   0   0)
     nstep                     =           50


     celldm(1)=  30.000000  celldm(2)=   0.000000  celldm(3)=   0.000000
     celldm(4)=   0.000000  celldm(5)=   0.000000  celldm(6)=   0.000000

     crystal axes: (cart. coord. in units of alat)
               a(1) = (   1.000000   0.000000   0.000000 )  
               a(2) = (   0.000000   1.000000   0.000000 )  
               a(3) = (   0.000000   0.000000   1.000000 )  

     reciprocal axes: (cart. coord. in units 2 pi/alat)
               b(1) = (  1.000000  0.000000  0.000000 )  
               b(2) = (  0.000000  1.000000  0.000000 )  
               b(3) = (  0.000000  0.000000  1.000000 )  


     PseudoPot. # 1 for hy read from file:
     /root/q-e/pseudo/H_US.van
     MD5 check sum: a9a9bfe98ff56cf4de197d71fc46bb44
     Pseudo is Ultrasoft, Zval =  1.0
     Generated by Vanderbilt code, v. 7.3.2
     Using radial grid of  399 points,  1 beta functions with: 
                l(1) =   0
     Q(r) pseudized with  8 coefficients,  rinner =    0.500

     atomic species   valence    mass     pseudopotential
        H              1.00     1.00784     hy( 1.00)

      8 Sym. Ops. (no inversion) found


                                    s                        frac. trans.

      isym =  1     identity                                     

 cryst.   s( 1) = (     1          0          0      )
                  (     0          1          0      )
                  (     0          0          1      )

 cart.    s( 1) = (  1.0000000  0.0000000  0.0000000 )
                  (  0.0000000  1.0000000  0.0000000 )
                  (  0.0000000  0.0000000  1.0000000 )


      isym =  2     180 deg rotation - cart. axis [1,0,0]        

 cryst.   s( 2) = (     1          0          0      )
                  (     0         -1          0      )
                  (     0          0         -1      )

 cart.    s( 2) = (  1.0000000  0.0000000  0.0000000 )
                  (  0.0000000 -1.0000000  0.0000000 )
                  (  0.0000000  0.0000000 -1.0000000 )


      isym =  3      90 deg rotation - cart. axis [-1,0,0]       

 cryst.   s( 3) = (     1          0          0      )
                  (     0          0         -1      )
                  (     0          1          0      )

 cart.    s( 3) = (  1.0000000  0.0000000  0.0000000 )
                  (  0.0000000  0.0000000  1.0000000 )
                  (  0.0000000 -1.0000000  0.0000000 )


      isym =  4      90 deg rotation - cart. axis [1,0,0]        

 cryst.   s( 4) = (     1          0          0      )
                  (     0          0          1      )
                  (     0         -1          0      )

 cart.    s( 4) = (  1.0000000  0.0000000  0.0000000 )
                  (  0.0000000  0.0000000 -1.0000000 )
                  (  0.0000000  1.0000000  0.0000000 )


      isym =  5     inv. 180 deg rotation - cart. axis [0,0,1]   

 cryst.   s( 5) = (     1          0          0      )
                  (     0          1          0      )
                  (     0          0         -1      )

 cart.    s( 5) = (  1.0000000  0.0000000  0.0000000 )
                  (  0.0000000  1.0000000  0.0000000 )
                  (  0.0000000  0.0000000 -1.0000000 )


      isym =  6     inv. 180 deg rotation - cart. axis [0,1,0]   

 cryst.   s( 6) = (     1          0          0      )
                  (     0         -1          0      )
                  (     0          0          1      )

 cart.    s( 6) = (  1.0000000  0.0000000  0.0000000 )
                  (  0.0000000 -1.0000000  0.0000000 )
                  (  0.0000000  0.0000000  1.0000000 )


      isym =  7     inv. 180 deg rotation - cart. axis [0,1,1]   

 cryst.   s( 7) = (     1          0          0      )
                  (     0          0         -1      )
                  (     0         -1          0      )

 cart.    s( 7) = (  1.0000000  0.0000000  0.0000000 )
                  (  0.0000000  0.0000000 -1.0000000 )
                  (  0.0000000 -1.0000000  0.0000000 )


      isym =  8     inv. 180 deg rotation - cart. axis [0,1,-1]  

 cryst.   s( 8) = (     1          0          0      )
                  (     0          0          1      )
                  (     0          1          0      )

 cart.    s( 8) = (  1.0000000  0.0000000  0.0000000 )
                  (  0.0000000  0.0000000  1.0000000 )
                  (  0.0000000  1.0000000  0.0000000 )


     point group C_4v (4mm) 
     there are  5 classes
     the character table:

       E     2C4   C2    2s_v  2s_d 
A_1    1.00  1.00  1.00  1.00  1.00
A_2    1.00  1.00  1.00 -1.00 -1.00
B_1    1.00 -1.00  1.00  1.00 -1.00
B_2    1.00 -1.00  1.00 -1.00  1.00
E      2.00  0.00 -2.00  0.00  0.00

     the symmetry operations in each class and the name of the first element:

     E        1
          identity                                               
     2C4      3    4
           90 deg rotation - cart. axis [-1,0,0]                 
     C2       2
          180 deg rotation - cart. axis [1,0,0]                  
     2s_v     5    6
          inv. 180 deg rotation - cart. axis [0,0,1]             
     2s_d     7    8
          inv. 180 deg rotation - cart. axis [0,1,1]             

   Cartesian axes

     site n.     atom                  positions (alat units)
         1           H   tau(   1) = (   0.0000000   0.0000000   0.0000000  )
         2           H   tau(   2) = (   0.0491329   0.0000000   0.0000000  )

   Crystallographic axes

     site n.     atom                  positions (cryst. coord.)
         1           H   tau(   1) = (  0.0000000  0.0000000  0.0000000  )
         2           H   tau(   2) = (  0.0491329  0.0000000  0.0000000  )

     number of k points=     1
                       cart. coord. in units 2pi/alat
        k(    1) = (  -0.5000000  -0.5000000  -0.5000000), wk =   2.0000000

                       cryst. coord.
        k(    1) = (  -0.5000000  -0.5000000  -0.5000000), wk =   2.0000000

     Dense  grid:   455863 G-vectors     FFT dimensions: (  96,  96,  96)

     Dynamical RAM for                 wfc:       1.74 MB

     Dynamical RAM for     wfc (w. buffer):       1.74 MB

     Dynamical RAM for           str. fact:       6.96 MB

     Dynamical RAM for           local pot:       0.00 MB

     Dynamical RAM for          nlocal pot:       1.74 MB

     Dynamical RAM for                qrad:       0.01 MB

     Dynamical RAM for          rho,v,vnew:      41.12 MB

     Dynamical RAM for               rhoin:      13.71 MB

     Dynamical RAM for            rho*nmix:     111.29 MB

     Dynamical RAM for           G-vectors:      29.56 MB

     Dynamical RAM for          h,s,v(r/c):       0.00 MB

     Dynamical RAM for          <psi|beta>:       0.00 MB

     Dynamical RAM for                 psi:       3.48 MB

     Dynamical RAM for                hpsi:       3.48 MB

     Dynamical RAM for                spsi:       3.48 MB

     Dynamical RAM for      wfcinit/wfcrot:       3.48 MB

     Dynamical RAM for           addusdens:      41.74 MB

     Dynamical RAM for          addusforce:      59.13 MB

     Estimated static dynamical RAM per process >     142.49 MB

     Estimated max dynamical RAM per process >     312.91 MB

     Initial potential from superposition of free atoms

     starting charge       2.0000, renormalised to       2.0000

     negative rho (up, down):  3.068E-02 0.000E+00
     Starting wfcs are    2 randomized atomic wfcs

     total cpu time spent up to now is        0.8 secs

     Self-consistent Calculation

     iteration #  1     ecut=    25.00 Ry     beta= 0.70
     Davidson diagonalization with overlap

---- Real-time Memory Report at c_bands before calling an iterative solver
           245 MiB given to the printing process from OS
             0 MiB allocation reported by mallinfo(arena+hblkhd)
           375 MiB available memory on the node where the printing process lives
------------------
     ethr =  1.00E-02,  avg # of iterations =  3.0

     negative rho (up, down):  4.142E-02 0.000E+00

     total cpu time spent up to now is        1.6 secs

     total energy              =      -2.31081990 Ry
     estimated scf accuracy    <       0.10614689 Ry

     iteration #  2     ecut=    25.00 Ry     beta= 0.70
     Davidson diagonalization with overlap

---- Real-time Memory Report at c_bands before calling an iterative solver
           308 MiB given to the printing process from OS
             0 MiB allocation reported by mallinfo(arena+hblkhd)
           250 MiB available memory on the node where the printing process lives
------------------
     ethr =  5.31E-03,  avg # of iterations =  2.0

     negative rho (up, down):  4.354E-02 0.000E+00

     total cpu time spent up to now is        2.4 secs

     total energy              =      -2.31694498 Ry
     estimated scf accuracy    <       0.00113415 Ry

     iteration #  3     ecut=    25.00 Ry     beta= 0.70
     Davidson diagonalization with overlap

---- Real-time Memory Report at c_bands before calling an iterative solver
           322 MiB given to the printing process from OS
             0 MiB allocation reported by mallinfo(arena+hblkhd)
           236 MiB available memory on the node where the printing process lives
------------------
     ethr =  5.67E-05,  avg # of iterations = 11.0

     negative rho (up, down):  4.328E-02 0.000E+00

     total cpu time spent up to now is        3.4 secs

     total energy              =      -2.31746503 Ry
     estimated scf accuracy    <       0.00001383 Ry

     iteration #  4     ecut=    25.00 Ry     beta= 0.70
     Davidson diagonalization with overlap

---- Real-time Memory Report at c_bands before calling an iterative solver
           336 MiB given to the printing process from OS
             0 MiB allocation reported by mallinfo(arena+hblkhd)
           222 MiB available memory on the node where the printing process lives
------------------
     ethr =  6.91E-07,  avg # of iterations =  5.0

     negative rho (up, down):  4.327E-02 0.000E+00

     total cpu time spent up to now is        4.3 secs

     total energy              =      -2.31747327 Ry
     estimated scf accuracy    <       0.00000035 Ry

     iteration #  5     ecut=    25.00 Ry     beta= 0.70
     Davidson diagonalization with overlap

---- Real-time Memory Report at c_bands before calling an iterative solver
           350 MiB given to the printing process from OS
             0 MiB allocation reported by mallinfo(arena+hblkhd)
           208 MiB available memory on the node where the printing process lives
------------------
     ethr =  1.74E-08,  avg # of iterations =  2.0

     negative rho (up, down):  4.328E-02 0.000E+00

     total cpu time spent up to now is        5.0 secs

     End of self-consistent calculation

          k =-0.5000-0.5000-0.5000 ( 57016 PWs)   bands (ev):

   -10.2382  -1.0747

     occupation numbers 
     1.0000   0.0000

     highest occupied, lowest unoccupied level (ev):   -10.2382   -1.0747

!    total energy              =      -2.31746641 Ry
     estimated scf accuracy    <          7.3E-09 Ry

     The total energy is the sum of the following terms:
     one-electron contribution =      -4.13111943 Ry
     hartree contribution      =       2.19960272 Ry
     xc contribution           =      -1.36484625 Ry
     ewald contribution        =       0.97889656 Ry

     convergence has been achieved in   5 iterations

     Forces acting on atoms (cartesian axes, Ry/au):

     atom    1 type  1   force =     0.04913855    0.00000000    0.00000000
     atom    2 type  1   force =    -0.04913855    0.00000000    0.00000000
     The non-local contrib.  to forces
     atom    1 type  1   force =     0.10767938    0.00000000    0.00000000
     atom    2 type  1   force =    -0.10668280    0.00000000    0.00000000
     The ionic contribution  to forces
     atom    1 type  1   force =    -0.92008020   -0.00000000   -0.00000000
     atom    2 type  1   force =     0.92008020   -0.00000000   -0.00000000
     The local contribution  to forces
     atom    1 type  1   force =     0.86214053    0.00000000    0.00000000
     atom    2 type  1   force =    -0.86195883    0.00000000    0.00000000
     The core correction contribution to forces
     atom    1 type  1   force =     0.00000000    0.00000000    0.00000000
     atom    2 type  1   force =     0.00000000    0.00000000    0.00000000
     The Hubbard contrib.    to forces
     atom    1 type  1   force =     0.00000000    0.00000000    0.00000000
     atom    2 type  1   force =     0.00000000    0.00000000    0.00000000
     The SCF correction term to forces
     atom    1 type  1   force =     0.00001334    0.00000000    0.00000000
     atom    2 type  1   force =     0.00003738   -0.00000000    0.00000000

     Total force =     0.069492     Total SCF correction =     0.000040

     BFGS Geometry Optimization
     Energy error            =      0.0E+00 Ry
     Gradient error          =      4.9E-02 Ry/Bohr

     number of scf cycles    =   1
     number of bfgs steps    =   0

     energy             new  =      -2.3174664082 Ry

     new trust radius        =       0.0491385514 bohr
     new conv_thr            =       0.0000000100 Ry


ATOMIC_POSITIONS (angstrom)
H             0.0260030016        0.0000000000        0.0000000000
H             0.7539969984        0.0000000000        0.0000000000



     Writing config-only to output data dir ./.save/
     NEW-OLD atomic charge density approx. for the potential

     negative rho (up, down):  4.317E-02 0.000E+00

     total cpu time spent up to now is        5.8 secs

     Self-consistent Calculation

     iteration #  1     ecut=    25.00 Ry     beta= 0.70
     Davidson diagonalization with overlap

---- Real-time Memory Report at c_bands before calling an iterative solver
           357 MiB given to the printing process from OS
             0 MiB allocation reported by mallinfo(arena+hblkhd)
           369 MiB available memory on the node where the printing process lives
------------------
     ethr =  1.00E-06,  avg # of iterations =  7.0

     negative rho (up, down):  4.555E-02 0.000E+00

     total cpu time spent up to now is        6.8 secs

     total energy              =      -2.31687634 Ry
     estimated scf accuracy    <       0.00077284 Ry

     iteration #  2     ecut=    25.00 Ry     beta= 0.70
     Davidson diagonalization with overlap

---- Real-time Memory Report at c_bands before calling an iterative solver
           357 MiB given to the printing process from OS
             0 MiB allocation reported by mallinfo(arena+hblkhd)
           243 MiB available memory on the node where the printing process lives
------------------
     ethr =  3.86E-05,  avg # of iterations =  1.0

     negative rho (up, down):  4.607E-02 0.000E+00

     total cpu time spent up to now is        7.5 secs

     total energy              =      -2.31660964 Ry
     estimated scf accuracy    <       0.00000790 Ry

     iteration #  3     ecut=    25.00 Ry     beta= 0.70
     Davidson diagonalization with overlap

---- Real-time Memory Report at c_bands before calling an iterative solver
           357 MiB given to the printing process from OS
             0 MiB allocation reported by mallinfo(arena+hblkhd)
           229 MiB available memory on the node where the printing process lives
------------------
     ethr =  3.95E-07,  avg # of iterations =  3.0

     negative rho (up, down):  4.618E-02 0.000E+00

     total cpu time spent up to now is        8.4 secs

     total energy              =      -2.31653438 Ry
     estimated scf accuracy    <       0.00000036 Ry

     iteration #  4     ecut=    25.00 Ry     beta= 0.70
     Davidson diagonalization with overlap

---- Real-time Memory Report at c_bands before calling an iterative solver
           357 MiB given to the printing process from OS
             0 MiB allocation reported by mallinfo(arena+hblkhd)
           215 MiB available memory on the node where the printing process lives
------------------
     ethr =  1.81E-08,  avg # of iterations =  2.0

     negative rho (up, down):  4.618E-02 0.000E+00

     total cpu time spent up to now is        9.1 secs

     End of self-consistent calculation

          k =-0.5000-0.5000-0.5000 ( 57016 PWs)   bands (ev):

   -10.4952  -1.1398

     occupation numbers 
     1.0000   0.0000

     highest occupied, lowest unoccupied level (ev):   -10.4952   -1.1398

!    total energy              =      -2.31652891 Ry
     estimated scf accuracy    <          1.8E-09 Ry

     The total energy is the sum of the following terms:
     one-electron contribution =      -4.26405883 Ry
     hartree contribution      =       2.26951591 Ry
     xc contribution           =      -1.39776970 Ry
     ewald contribution        =       1.07578371 Ry

     convergence has been achieved in   4 iterations

     Forces acting on atoms (cartesian axes, Ry/au):

     atom    1 type  1   force =    -0.03213705    0.00000000    0.00000000
     atom    2 type  1   force =     0.03213705    0.00000000    0.00000000
     The non-local contrib.  to forces
     atom    1 type  1   force =     0.10935826    0.00000000    0.00000000
     atom    2 type  1   force =    -0.10747077    0.00000000    0.00000000
     The ionic contribution  to forces
     atom    1 type  1   force =    -1.05633121    0.00000000   -0.00000000
     atom    2 type  1   force =     1.05633121   -0.00000000   -0.00000000
     The local contribution  to forces
     atom    1 type  1   force =     0.91587616    0.00000000    0.00000000
     atom    2 type  1   force =    -0.91573691    0.00000000    0.00000000
     The core correction contribution to forces
     atom    1 type  1   force =     0.00000000    0.00000000    0.00000000
     atom    2 type  1   force =     0.00000000    0.00000000    0.00000000
     The Hubbard contrib.    to forces
     atom    1 type  1   force =     0.00000000    0.00000000    0.00000000
     atom    2 type  1   force =     0.00000000    0.00000000    0.00000000
     The SCF correction term to forces
     atom    1 type  1   force =    -0.00000516   -0.00000000    0.00000000
     atom    2 type  1   force =     0.00004863    0.00000000   -0.00000000

     Total force =     0.045449     Total SCF correction =     0.000049
     Energy error            =      9.4E-04 Ry
     Gradient error          =      3.2E-02 Ry/Bohr

     number of scf cycles    =   2
     number of bfgs steps    =   1

     energy             old  =      -2.3174664082 Ry
     energy             new  =      -2.3165289094 Ry

     CASE: energy            _new > energy            _old

     new trust radius        =       0.0205750166 bohr
     new conv_thr            =       0.0000000100 Ry


ATOMIC_POSITIONS (angstrom)
H             0.0108878299        0.0000000000        0.0000000000
H             0.7691121701        0.0000000000        0.0000000000



     Writing config-only to output data dir ./.save/
     NEW-OLD atomic charge density approx. for the potential

     negative rho (up, down):  4.614E-02 0.000E+00

     total cpu time spent up to now is        9.9 secs

     Self-consistent Calculation

     iteration #  1     ecut=    25.00 Ry     beta= 0.70
     Davidson diagonalization with overlap

---- Real-time Memory Report at c_bands before calling an iterative solver
           357 MiB given to the printing process from OS
             0 MiB allocation reported by mallinfo(arena+hblkhd)
           369 MiB available memory on the node where the printing process lives
------------------
     ethr =  1.00E-06,  avg # of iterations =  4.0

     negative rho (up, down):  4.491E-02 0.000E+00

     total cpu time spent up to now is       10.8 secs

     total energy              =      -2.31770330 Ry
     estimated scf accuracy    <       0.00026683 Ry

     iteration #  2     ecut=    25.00 Ry     beta= 0.70
     Davidson diagonalization with overlap

---- Real-time Memory Report at c_bands before calling an iterative solver
           357 MiB given to the printing process from OS
             0 MiB allocation reported by mallinfo(arena+hblkhd)
           243 MiB available memory on the node where the printing process lives
------------------
     ethr =  1.33E-05,  avg # of iterations =  1.0

     negative rho (up, down):  4.467E-02 0.000E+00

     total cpu time spent up to now is       11.5 secs

     total energy              =      -2.31788664 Ry
     estimated scf accuracy    <       0.00000309 Ry

     iteration #  3     ecut=    25.00 Ry     beta= 0.70
     Davidson diagonalization with overlap

---- Real-time Memory Report at c_bands before calling an iterative solver
           357 MiB given to the printing process from OS
             0 MiB allocation reported by mallinfo(arena+hblkhd)
           229 MiB available memory on the node where the printing process lives
------------------
     ethr =  1.54E-07,  avg # of iterations =  2.0

     negative rho (up, down):  4.463E-02 0.000E+00

     total cpu time spent up to now is       12.3 secs

     total energy              =      -2.31793118 Ry
     estimated scf accuracy    <       0.00000015 Ry

     iteration #  4     ecut=    25.00 Ry     beta= 0.70
     Davidson diagonalization with overlap

---- Real-time Memory Report at c_bands before calling an iterative solver
           357 MiB given to the printing process from OS
             0 MiB allocation reported by mallinfo(arena+hblkhd)
           215 MiB available memory on the node where the printing process lives
------------------
     ethr =  7.52E-09,  avg # of iterations =  2.0

     negative rho (up, down):  4.463E-02 0.000E+00

     total cpu time spent up to now is       13.0 secs

     End of self-consistent calculation

          k =-0.5000-0.5000-0.5000 ( 57016 PWs)   bands (ev):

   -10.3427  -1.1105

     occupation numbers 
     1.0000   0.0000

     highest occupied, lowest unoccupied level (ev):   -10.3427   -1.1105

!    total energy              =      -2.31793204 Ry
     estimated scf accuracy    <          3.1E-09 Ry

     The total energy is the sum of the following terms:
     one-electron contribution =      -4.18580802 Ry
     hartree contribution      =       2.22839395 Ry
     xc contribution           =      -1.37836403 Ry
     ewald contribution        =       1.01784606 Ry

     convergence has been achieved in   4 iterations

     Forces acting on atoms (cartesian axes, Ry/au):

     atom    1 type  1   force =     0.01865586    0.00000000    0.00000000
     atom    2 type  1   force =    -0.01865586    0.00000000    0.00000000
     The non-local contrib.  to forces
     atom    1 type  1   force =     0.10877881    0.00000000    0.00000000
     atom    2 type  1   force =    -0.10726779    0.00000000    0.00000000
     The ionic contribution  to forces
     atom    1 type  1   force =    -0.97372704   -0.00000000   -0.00000000
     atom    2 type  1   force =     0.97372704    0.00000000   -0.00000000
     The local contribution  to forces
     atom    1 type  1   force =     0.88439773    0.00000000    0.00000000
     atom    2 type  1   force =    -0.88422401    0.00000000    0.00000000
     The core correction contribution to forces
     atom    1 type  1   force =     0.00000000    0.00000000    0.00000000
     atom    2 type  1   force =     0.00000000    0.00000000    0.00000000
     The Hubbard contrib.    to forces
     atom    1 type  1   force =     0.00000000    0.00000000    0.00000000
     atom    2 type  1   force =     0.00000000    0.00000000    0.00000000
     The SCF correction term to forces
     atom    1 type  1   force =     0.00011060    0.00000000    0.00000000
     atom    2 type  1   force =     0.00001315   -0.00000000    0.00000000

     Total force =     0.026383     Total SCF correction =     0.000111
     Energy error            =      4.7E-04 Ry
     Gradient error          =      1.9E-02 Ry/Bohr

     number of scf cycles    =   3
     number of bfgs steps    =   1

     energy             old  =      -2.3174664082 Ry
     energy             new  =      -2.3179320407 Ry

     CASE: energy            _new < energy            _old

     new trust radius        =       0.0125922174 bohr
     new conv_thr            =       0.0000000005 Ry


ATOMIC_POSITIONS (angstrom)
H             0.0175513444        0.0000000000        0.0000000000
H             0.7624486556        0.0000000000        0.0000000000



     Writing config-only to output data dir ./.save/
     NEW-OLD atomic charge density approx. for the potential

     negative rho (up, down):  4.463E-02 0.000E+00

     total cpu time spent up to now is       13.7 secs

     Self-consistent Calculation

     iteration #  1     ecut=    25.00 Ry     beta= 0.70
     Davidson diagonalization with overlap

---- Real-time Memory Report at c_bands before calling an iterative solver
           357 MiB given to the printing process from OS
             0 MiB allocation reported by mallinfo(arena+hblkhd)
           369 MiB available memory on the node where the printing process lives
------------------
     ethr =  1.00E-06,  avg # of iterations =  3.0

     negative rho (up, down):  4.522E-02 0.000E+00

     total cpu time spent up to now is       14.6 secs

     total energy              =      -2.31770515 Ry
     estimated scf accuracy    <       0.00005081 Ry

     iteration #  2     ecut=    25.00 Ry     beta= 0.70
     Davidson diagonalization with overlap

---- Real-time Memory Report at c_bands before calling an iterative solver
           357 MiB given to the printing process from OS
             0 MiB allocation reported by mallinfo(arena+hblkhd)
           243 MiB available memory on the node where the printing process lives
------------------
     ethr =  2.54E-06,  avg # of iterations =  1.0

     negative rho (up, down):  4.535E-02 0.000E+00

     total cpu time spent up to now is       15.3 secs

     total energy              =      -2.31763003 Ry
     estimated scf accuracy    <       0.00000066 Ry

     iteration #  3     ecut=    25.00 Ry     beta= 0.70
     Davidson diagonalization with overlap

---- Real-time Memory Report at c_bands before calling an iterative solver
           357 MiB given to the printing process from OS
             0 MiB allocation reported by mallinfo(arena+hblkhd)
           229 MiB available memory on the node where the printing process lives
------------------
     ethr =  3.31E-08,  avg # of iterations =  2.0

     negative rho (up, down):  4.537E-02 0.000E+00

     total cpu time spent up to now is       16.1 secs

     total energy              =      -2.31761438 Ry
     estimated scf accuracy    <       0.00000003 Ry

     iteration #  4     ecut=    25.00 Ry     beta= 0.70
     Davidson diagonalization with overlap

---- Real-time Memory Report at c_bands before calling an iterative solver
           357 MiB given to the printing process from OS
             0 MiB allocation reported by mallinfo(arena+hblkhd)
           215 MiB available memory on the node where the printing process lives
------------------
     ethr =  1.54E-09,  avg # of iterations =  2.0

     negative rho (up, down):  4.537E-02 0.000E+00

     total cpu time spent up to now is       16.8 secs

     total energy              =      -2.31761147 Ry
     estimated scf accuracy    <          3.2E-09 Ry

     iteration #  5     ecut=    25.00 Ry     beta= 0.70
     Davidson diagonalization with overlap

---- Real-time Memory Report at c_bands before calling an iterative solver
           358 MiB given to the printing process from OS
             0 MiB allocation reported by mallinfo(arena+hblkhd)
           202 MiB available memory on the node where the printing process lives
------------------
     ethr =  1.62E-10,  avg # of iterations =  3.0

     negative rho (up, down):  4.537E-02 0.000E+00

     total cpu time spent up to now is       17.5 secs

     End of self-consistent calculation

          k =-0.5000-0.5000-0.5000 ( 57016 PWs)   bands (ev):

   -10.4091  -1.1291

     occupation numbers 
     1.0000   0.0000

     highest occupied, lowest unoccupied level (ev):   -10.4091   -1.1291

!    total energy              =      -2.31761413 Ry
     estimated scf accuracy    <          2.0E-10 Ry

     The total energy is the sum of the following terms:
     one-electron contribution =      -4.22000146 Ry
     hartree contribution      =       2.24642194 Ry
     xc contribution           =      -1.38684247 Ry
     ewald contribution        =       1.04280786 Ry

     convergence has been achieved in   5 iterations

     Forces acting on atoms (cartesian axes, Ry/au):

     atom    1 type  1   force =    -0.00230178    0.00000000    0.00000000
     atom    2 type  1   force =     0.00230178    0.00000000    0.00000000
     The non-local contrib.  to forces
     atom    1 type  1   force =     0.10931672    0.00000000    0.00000000
     atom    2 type  1   force =    -0.10751601    0.00000000    0.00000000
     The ionic contribution  to forces
     atom    1 type  1   force =    -1.00890494   -0.00000000   -0.00000000
     atom    2 type  1   force =     1.00890494   -0.00000000   -0.00000000
     The local contribution  to forces
     atom    1 type  1   force =     0.89825355    0.00000000    0.00000000
     atom    2 type  1   force =    -0.89806019    0.00000000    0.00000000
     The core correction contribution to forces
     atom    1 type  1   force =     0.00000000    0.00000000    0.00000000
     atom    2 type  1   force =     0.00000000    0.00000000    0.00000000
     The Hubbard contrib.    to forces
     atom    1 type  1   force =     0.00000000    0.00000000    0.00000000
     atom    2 type  1   force =     0.00000000    0.00000000    0.00000000
     The SCF correction term to forces
     atom    1 type  1   force =    -0.00002699   -0.00000000   -0.00000000
     atom    2 type  1   force =    -0.00008683   -0.00000000   -0.00000000

     Total force =     0.003255     Total SCF correction =     0.000091
     Energy error            =      3.2E-04 Ry
     Gradient error          =      2.3E-03 Ry/Bohr

     number of scf cycles    =   4
     number of bfgs steps    =   2

     energy             old  =      -2.3179320407 Ry
     energy             new  =      -2.3176141270 Ry

     CASE: energy            _new > energy            _old

     new trust radius        =       0.0037551801 bohr
     new conv_thr            =       0.0000000005 Ry


ATOMIC_POSITIONS (angstrom)
H             0.0128749857        0.0000000000        0.0000000000
H             0.7671250143        0.0000000000        0.0000000000



     Writing config-only to output data dir ./.save/
     NEW-OLD atomic charge density approx. for the potential

     negative rho (up, down):  4.535E-02 0.000E+00

     total cpu time spent up to now is       18.3 secs

     Self-consistent Calculation

     iteration #  1     ecut=    25.00 Ry     beta= 0.70
     Davidson diagonalization with overlap

---- Real-time Memory Report at c_bands before calling an iterative solver
           358 MiB given to the printing process from OS
             0 MiB allocation reported by mallinfo(arena+hblkhd)
           369 MiB available memory on the node where the printing process lives
------------------
     ethr =  1.00E-06,  avg # of iterations =  3.0

     negative rho (up, down):  4.495E-02 0.000E+00

     total cpu time spent up to now is       19.2 secs

     total energy              =      -2.31779425 Ry
     estimated scf accuracy    <       0.00002527 Ry

     iteration #  2     ecut=    25.00 Ry     beta= 0.70
     Davidson diagonalization with overlap

---- Real-time Memory Report at c_bands before calling an iterative solver
           358 MiB given to the printing process from OS
             0 MiB allocation reported by mallinfo(arena+hblkhd)
           243 MiB available memory on the node where the printing process lives
------------------
     ethr =  1.26E-06,  avg # of iterations =  1.0

     negative rho (up, down):  4.486E-02 0.000E+00

     total cpu time spent up to now is       19.9 secs

     total energy              =      -2.31785912 Ry
     estimated scf accuracy    <       0.00000035 Ry

     iteration #  3     ecut=    25.00 Ry     beta= 0.70
     Davidson diagonalization with overlap

---- Real-time Memory Report at c_bands before calling an iterative solver
           358 MiB given to the printing process from OS
             0 MiB allocation reported by mallinfo(arena+hblkhd)
           229 MiB available memory on the node where the printing process lives
------------------
     ethr =  1.77E-08,  avg # of iterations =  2.0

     negative rho (up, down):  4.486E-02 0.000E+00

     total cpu time spent up to now is       20.6 secs

     total energy              =      -2.31787127 Ry
     estimated scf accuracy    <       0.00000002 Ry

     iteration #  4     ecut=    25.00 Ry     beta= 0.70
     Davidson diagonalization with overlap

---- Real-time Memory Report at c_bands before calling an iterative solver
           358 MiB given to the printing process from OS
             0 MiB allocation reported by mallinfo(arena+hblkhd)
           215 MiB available memory on the node where the printing process lives
------------------
     ethr =  1.03E-09,  avg # of iterations =  2.0

     negative rho (up, down):  4.486E-02 0.000E+00

     total cpu time spent up to now is       21.4 secs

     total energy              =      -2.31787302 Ry
     estimated scf accuracy    <          1.9E-09 Ry

     iteration #  5     ecut=    25.00 Ry     beta= 0.70
     Davidson diagonalization with overlap

---- Real-time Memory Report at c_bands before calling an iterative solver
           358 MiB given to the printing process from OS
             0 MiB allocation reported by mallinfo(arena+hblkhd)
           202 MiB available memory on the node where the printing process lives
------------------
     ethr =  9.32E-11,  avg # of iterations =  3.0

     negative rho (up, down):  4.486E-02 0.000E+00

     total cpu time spent up to now is       22.1 secs

     End of self-consistent calculation

          k =-0.5000-0.5000-0.5000 ( 57016 PWs)   bands (ev):

   -10.3631  -1.1179

     occupation numbers 
     1.0000   0.0000

     highest occupied, lowest unoccupied level (ev):   -10.3631   -1.1179

!    total energy              =      -2.31787015 Ry
     estimated scf accuracy    <          5.6E-11 Ry

     The total energy is the sum of the following terms:
     one-electron contribution =      -4.19593708 Ry
     hartree contribution      =       2.23372309 Ry
     xc contribution           =      -1.38085381 Ry
     ewald contribution        =       1.02519766 Ry

     convergence has been achieved in   5 iterations

     Forces acting on atoms (cartesian axes, Ry/au):

     atom    1 type  1   force =     0.01240627    0.00000000    0.00000000
     atom    2 type  1   force =    -0.01240627    0.00000000    0.00000000
     The non-local contrib.  to forces
     atom    1 type  1   force =     0.10885173    0.00000000    0.00000000
     atom    2 type  1   force =    -0.10715992    0.00000000    0.00000000
     The ionic contribution  to forces
     atom    1 type  1   force =    -0.98402275    0.00000000   -0.00000000
     atom    2 type  1   force =     0.98402275   -0.00000000   -0.00000000
     The local contribution  to forces
     atom    1 type  1   force =     0.88850725    0.00000000    0.00000000
     atom    2 type  1   force =    -0.88834893    0.00000000    0.00000000
     The core correction contribution to forces
     atom    1 type  1   force =     0.00000000    0.00000000    0.00000000
     atom    2 type  1   force =     0.00000000    0.00000000    0.00000000
     The Hubbard contrib.    to forces
     atom    1 type  1   force =     0.00000000    0.00000000    0.00000000
     atom    2 type  1   force =     0.00000000    0.00000000    0.00000000
     The SCF correction term to forces
     atom    1 type  1   force =     0.00006162   -0.00000000    0.00000000
     atom    2 type  1   force =     0.00007141   -0.00000000    0.00000000

     Total force =     0.017545     Total SCF correction =     0.000094
     Energy error            =      6.2E-05 Ry
     Gradient error          =      1.2E-02 Ry/Bohr

     number of scf cycles    =   5
     number of bfgs steps    =   2

     energy             old  =      -2.3179320407 Ry
     energy             new  =      -2.3178701484 Ry

     CASE: energy            _new > energy            _old

     new trust radius        =       0.0013023141 bohr
     new conv_thr            =       0.0000000005 Ry


ATOMIC_POSITIONS (angstrom)
H             0.0115769849        0.0000000000        0.0000000000
H             0.7684230151        0.0000000000        0.0000000000



     Writing config-only to output data dir ./.save/
     NEW-OLD atomic charge density approx. for the potential

     negative rho (up, down):  4.485E-02 0.000E+00

     total cpu time spent up to now is       23.0 secs

     Self-consistent Calculation

     iteration #  1     ecut=    25.00 Ry     beta= 0.70
     Davidson diagonalization with overlap

---- Real-time Memory Report at c_bands before calling an iterative solver
           358 MiB given to the printing process from OS
             0 MiB allocation reported by mallinfo(arena+hblkhd)
           368 MiB available memory on the node where the printing process lives
------------------
     ethr =  1.00E-06,  avg # of iterations =  2.0

     Threshold (ethr) on eigenvalues was too large:
     Diagonalizing with lowered threshold

     Davidson diagonalization with overlap

---- Real-time Memory Report at c_bands before calling an iterative solver
           358 MiB given to the printing process from OS
             0 MiB allocation reported by mallinfo(arena+hblkhd)
           369 MiB available memory on the node where the printing process lives
------------------
     ethr =  8.31E-08,  avg # of iterations =  1.0

     negative rho (up, down):  4.474E-02 0.000E+00

     total cpu time spent up to now is       24.0 secs

     total energy              =      -2.31789310 Ry
     estimated scf accuracy    <       0.00000177 Ry

     iteration #  2     ecut=    25.00 Ry     beta= 0.70
     Davidson diagonalization with overlap

---- Real-time Memory Report at c_bands before calling an iterative solver
           358 MiB given to the printing process from OS
             0 MiB allocation reported by mallinfo(arena+hblkhd)
           243 MiB available memory on the node where the printing process lives
------------------
     ethr =  8.85E-08,  avg # of iterations =  2.0

     negative rho (up, down):  4.471E-02 0.000E+00

     total cpu time spent up to now is       24.8 secs

     total energy              =      -2.31791510 Ry
     estimated scf accuracy    <       0.00000003 Ry

     iteration #  3     ecut=    25.00 Ry     beta= 0.70
     Davidson diagonalization with overlap

---- Real-time Memory Report at c_bands before calling an iterative solver
           358 MiB given to the printing process from OS
             0 MiB allocation reported by mallinfo(arena+hblkhd)
           229 MiB available memory on the node where the printing process lives
------------------
     ethr =  1.64E-09,  avg # of iterations =  3.0

     negative rho (up, down):  4.472E-02 0.000E+00

     total cpu time spent up to now is       25.6 secs

     total energy              =      -2.31791518 Ry
     estimated scf accuracy    <          4.7E-09 Ry

     iteration #  4     ecut=    25.00 Ry     beta= 0.70
     Davidson diagonalization with overlap

---- Real-time Memory Report at c_bands before calling an iterative solver
           358 MiB given to the printing process from OS
             0 MiB allocation reported by mallinfo(arena+hblkhd)
           215 MiB available memory on the node where the printing process lives
------------------
     ethr =  2.35E-10,  avg # of iterations =  3.0

     negative rho (up, down):  4.471E-02 0.000E+00

     total cpu time spent up to now is       26.3 secs

     total energy              =      -2.31791835 Ry
     estimated scf accuracy    <          4.7E-09 Ry

     iteration #  5     ecut=    25.00 Ry     beta= 0.70
     Davidson diagonalization with overlap

---- Real-time Memory Report at c_bands before calling an iterative solver
           358 MiB given to the printing process from OS
             0 MiB allocation reported by mallinfo(arena+hblkhd)
           202 MiB available memory on the node where the printing process lives
------------------
     ethr =  2.35E-10,  avg # of iterations =  3.0

     negative rho (up, down):  4.471E-02 0.000E+00

     total cpu time spent up to now is       27.1 secs

     End of self-consistent calculation

          k =-0.5000-0.5000-0.5000 ( 57016 PWs)   bands (ev):

   -10.3499  -1.1138

     occupation numbers 
     1.0000   0.0000

     highest occupied, lowest unoccupied level (ev):   -10.3499   -1.1138

!    total energy              =      -2.31791870 Ry
     estimated scf accuracy    <          1.6E-10 Ry

     The total energy is the sum of the following terms:
     one-electron contribution =      -4.18934087 Ry
     hartree contribution      =       2.23028626 Ry
     xc contribution           =      -1.37925096 Ry
     ewald contribution        =       1.02038687 Ry

     convergence has been achieved in   5 iterations

     Forces acting on atoms (cartesian axes, Ry/au):

     atom    1 type  1   force =     0.01652902    0.00000000    0.00000000
     atom    2 type  1   force =    -0.01652902    0.00000000    0.00000000
     The non-local contrib.  to forces
     atom    1 type  1   force =     0.10879221    0.00000000    0.00000000
     atom    2 type  1   force =    -0.10727083    0.00000000    0.00000000
     The ionic contribution  to forces
     atom    1 type  1   force =    -0.97727928   -0.00000000   -0.00000000
     atom    2 type  1   force =     0.97727928    0.00000000   -0.00000000
     The local contribution  to forces
     atom    1 type  1   force =     0.88584380    0.00000000    0.00000000
     atom    2 type  1   force =    -0.88567253    0.00000000    0.00000000
     The core correction contribution to forces
     atom    1 type  1   force =     0.00000000    0.00000000    0.00000000
     atom    2 type  1   force =     0.00000000    0.00000000    0.00000000
     The Hubbard contrib.    to forces
     atom    1 type  1   force =     0.00000000    0.00000000    0.00000000
     atom    2 type  1   force =     0.00000000    0.00000000    0.00000000
     The SCF correction term to forces
     atom    1 type  1   force =    -0.00000636    0.00000000   -0.00000000
     atom    2 type  1   force =    -0.00004359    0.00000000   -0.00000000

     Total force =     0.023376     Total SCF correction =     0.000044
     Energy error            =      1.3E-05 Ry
     Gradient error          =      1.7E-02 Ry/Bohr

     number of scf cycles    =   6
     number of bfgs steps    =   2

     energy             old  =      -2.3179320407 Ry
     energy             new  =      -2.3179187001 Ry

     CASE: energy            _new > energy            _old

     new trust radius        =       0.0005108933 bohr
     new conv_thr            =       0.0000000005 Ry


ATOMIC_POSITIONS (angstrom)
H             0.0111581830        0.0000000000        0.0000000000
H             0.7688418170        0.0000000000        0.0000000000



     Writing config-only to output data dir ./.save/
     NEW-OLD atomic charge density approx. for the potential

     negative rho (up, down):  4.471E-02 0.000E+00

     total cpu time spent up to now is       27.9 secs

     Self-consistent Calculation

     iteration #  1     ecut=    25.00 Ry     beta= 0.70
     Davidson diagonalization with overlap

---- Real-time Memory Report at c_bands before calling an iterative solver
           358 MiB given to the printing process from OS
             0 MiB allocation reported by mallinfo(arena+hblkhd)
           368 MiB available memory on the node where the printing process lives
------------------
     ethr =  1.00E-06,  avg # of iterations =  2.0

     Threshold (ethr) on eigenvalues was too large:
     Diagonalizing with lowered threshold

     Davidson diagonalization with overlap

---- Real-time Memory Report at c_bands before calling an iterative solver
           358 MiB given to the printing process from OS
             0 MiB allocation reported by mallinfo(arena+hblkhd)
           369 MiB available memory on the node where the printing process lives
------------------
     ethr =  8.05E-09,  avg # of iterations =  1.0

     negative rho (up, down):  4.468E-02 0.000E+00

     total cpu time spent up to now is       28.9 secs

     total energy              =      -2.31791024 Ry
     estimated scf accuracy    <       0.00000018 Ry

     iteration #  2     ecut=    25.00 Ry     beta= 0.70
     Davidson diagonalization with overlap

---- Real-time Memory Report at c_bands before calling an iterative solver
           358 MiB given to the printing process from OS
             0 MiB allocation reported by mallinfo(arena+hblkhd)
           243 MiB available memory on the node where the printing process lives
------------------
     ethr =  8.91E-09,  avg # of iterations =  2.0

     negative rho (up, down):  4.467E-02 0.000E+00

     total cpu time spent up to now is       29.6 secs

     total energy              =      -2.31791591 Ry
     estimated scf accuracy    <          3.3E-09 Ry

     iteration #  3     ecut=    25.00 Ry     beta= 0.70
     Davidson diagonalization with overlap

---- Real-time Memory Report at c_bands before calling an iterative solver
           358 MiB given to the printing process from OS
             0 MiB allocation reported by mallinfo(arena+hblkhd)
           229 MiB available memory on the node where the printing process lives
------------------
     ethr =  1.67E-10,  avg # of iterations =  2.0

     negative rho (up, down):  4.467E-02 0.000E+00

     total cpu time spent up to now is       30.3 secs

     End of self-consistent calculation

          k =-0.5000-0.5000-0.5000 ( 57016 PWs)   bands (ev):

   -10.3459  -1.1109

     occupation numbers 
     1.0000   0.0000

     highest occupied, lowest unoccupied level (ev):   -10.3459   -1.1109

!    total energy              =      -2.31791632 Ry
     estimated scf accuracy    <          1.9E-10 Ry

     The total energy is the sum of the following terms:
     one-electron contribution =      -4.18722465 Ry
     hartree contribution      =       2.22919482 Ry
     xc contribution           =      -1.37872820 Ry
     ewald contribution        =       1.01884171 Ry

     convergence has been achieved in   3 iterations

     Forces acting on atoms (cartesian axes, Ry/au):

     atom    1 type  1   force =     0.01778154    0.00000000    0.00000000
     atom    2 type  1   force =    -0.01778154    0.00000000    0.00000000
     The non-local contrib.  to forces
     atom    1 type  1   force =     0.10871453    0.00000000    0.00000000
     atom    2 type  1   force =    -0.10731717    0.00000000    0.00000000
     The ionic contribution  to forces
     atom    1 type  1   force =    -0.97511826   -0.00000000   -0.00000000
     atom    2 type  1   force =     0.97511826   -0.00000000   -0.00000000
     The local contribution  to forces
     atom    1 type  1   force =     0.88498875    0.00000000    0.00000000
     atom    2 type  1   force =    -0.88481846    0.00000000    0.00000000
     The core correction contribution to forces
     atom    1 type  1   force =     0.00000000    0.00000000    0.00000000
     atom    2 type  1   force =     0.00000000    0.00000000    0.00000000
     The Hubbard contrib.    to forces
     atom    1 type  1   force =     0.00000000    0.00000000    0.00000000
     atom    2 type  1   force =     0.00000000    0.00000000    0.00000000
     The SCF correction term to forces
     atom    1 type  1   force =    -0.00002706   -0.00000000   -0.00000000
     atom    2 type  1   force =     0.00001224    0.00000000   -0.00000000

     Total force =     0.025147     Total SCF correction =     0.000030
     Energy error            =      1.6E-05 Ry
     Gradient error          =      1.8E-02 Ry/Bohr

     number of scf cycles    =   7
     number of bfgs steps    =   2

     energy             old  =      -2.3179320407 Ry
     energy             new  =      -2.3179163184 Ry

     CASE: energy            _new > energy            _old

     new trust radius        =       0.0001399871 bohr
     new conv_thr            =       0.0000000005 Ry


ATOMIC_POSITIONS (angstrom)
H             0.0109619079        0.0000000000        0.0000000000
H             0.7690380921        0.0000000000        0.0000000000



     Writing config-only to output data dir ./.save/
     NEW-OLD atomic charge density approx. for the potential

     negative rho (up, down):  4.466E-02 0.000E+00

     total cpu time spent up to now is       31.1 secs

     Self-consistent Calculation

     iteration #  1     ecut=    25.00 Ry     beta= 0.70
     Davidson diagonalization with overlap

---- Real-time Memory Report at c_bands before calling an iterative solver
           358 MiB given to the printing process from OS
             0 MiB allocation reported by mallinfo(arena+hblkhd)
           368 MiB available memory on the node where the printing process lives
------------------
     ethr =  1.00E-06,  avg # of iterations =  2.0

     Threshold (ethr) on eigenvalues was too large:
     Diagonalizing with lowered threshold

     Davidson diagonalization with overlap

---- Real-time Memory Report at c_bands before calling an iterative solver
           358 MiB given to the printing process from OS
             0 MiB allocation reported by mallinfo(arena+hblkhd)
           369 MiB available memory on the node where the printing process lives
------------------
     ethr =  1.99E-09,  avg # of iterations =  1.0

     negative rho (up, down):  4.465E-02 0.000E+00

     total cpu time spent up to now is       32.1 secs

     total energy              =      -2.31791823 Ry
     estimated scf accuracy    <       0.00000004 Ry

     iteration #  2     ecut=    25.00 Ry     beta= 0.70
     Davidson diagonalization with overlap

---- Real-time Memory Report at c_bands before calling an iterative solver
           358 MiB given to the printing process from OS
             0 MiB allocation reported by mallinfo(arena+hblkhd)
           243 MiB available memory on the node where the printing process lives
------------------
     ethr =  2.20E-09,  avg # of iterations =  2.0

     negative rho (up, down):  4.465E-02 0.000E+00

     total cpu time spent up to now is       32.9 secs

     total energy              =      -2.31791909 Ry
     estimated scf accuracy    <          5.4E-10 Ry

     iteration #  3     ecut=    25.00 Ry     beta= 0.70
     Davidson diagonalization with overlap

---- Real-time Memory Report at c_bands before calling an iterative solver
           358 MiB given to the printing process from OS
             0 MiB allocation reported by mallinfo(arena+hblkhd)
           229 MiB available memory on the node where the printing process lives
------------------
     ethr =  2.70E-11,  avg # of iterations =  4.0

     negative rho (up, down):  4.464E-02 0.000E+00

     total cpu time spent up to now is       33.7 secs

     End of self-consistent calculation

          k =-0.5000-0.5000-0.5000 ( 57016 PWs)   bands (ev):

   -10.3437  -1.1100

     occupation numbers 
     1.0000   0.0000

     highest occupied, lowest unoccupied level (ev):   -10.3437   -1.1100

!    total energy              =      -2.31792334 Ry
     estimated scf accuracy    <          3.9E-10 Ry

     The total energy is the sum of the following terms:
     one-electron contribution =      -4.18621159 Ry
     hartree contribution      =       2.22864217 Ry
     xc contribution           =      -1.37847264 Ry
     ewald contribution        =       1.01811873 Ry

     convergence has been achieved in   3 iterations

     Forces acting on atoms (cartesian axes, Ry/au):

     atom    1 type  1   force =     0.01844448    0.00000000    0.00000000
     atom    2 type  1   force =    -0.01844448    0.00000000    0.00000000
     The non-local contrib.  to forces
     atom    1 type  1   force =     0.10874532    0.00000000    0.00000000
     atom    2 type  1   force =    -0.10733385    0.00000000    0.00000000
     The ionic contribution  to forces
     atom    1 type  1   force =    -0.97410795   -0.00000000   -0.00000000
     atom    2 type  1   force =     0.97410795    0.00000000   -0.00000000
     The local contribution  to forces
     atom    1 type  1   force =     0.88456579    0.00000000    0.00000000
     atom    2 type  1   force =    -0.88440474    0.00000000    0.00000000
     The core correction contribution to forces
     atom    1 type  1   force =     0.00000000    0.00000000    0.00000000
     atom    2 type  1   force =     0.00000000    0.00000000    0.00000000
     The Hubbard contrib.    to forces
     atom    1 type  1   force =     0.00000000    0.00000000    0.00000000
     atom    2 type  1   force =     0.00000000    0.00000000    0.00000000
     The SCF correction term to forces
     atom    1 type  1   force =     0.00007105   -0.00000000    0.00000000
     atom    2 type  1   force =     0.00001590   -0.00000000    0.00000000

     Total force =     0.026084     Total SCF correction =     0.000073
     Energy error            =      8.7E-06 Ry
     Gradient error          =      1.8E-02 Ry/Bohr

     number of scf cycles    =   8
     number of bfgs steps    =   2

     energy             old  =      -2.3179320407 Ry
     energy             new  =      -2.3179233410 Ry

     CASE: energy            _new > energy            _old

     new trust radius        =       0.0000262580 bohr

     trust_radius < trust_radius_min

     resetting bfgs history

     new conv_thr            =       0.0000000005 Ry


ATOMIC_POSITIONS (angstrom)
H             0.0207600866        0.0000000000        0.0000000000
H             0.7592399134        0.0000000000        0.0000000000



     Writing config-only to output data dir ./.save/
     NEW-OLD atomic charge density approx. for the potential

     negative rho (up, down):  4.461E-02 0.000E+00

     total cpu time spent up to now is       34.4 secs

     Self-consistent Calculation

     iteration #  1     ecut=    25.00 Ry     beta= 0.70
     Davidson diagonalization with overlap

---- Real-time Memory Report at c_bands before calling an iterative solver
           358 MiB given to the printing process from OS
             0 MiB allocation reported by mallinfo(arena+hblkhd)
           368 MiB available memory on the node where the printing process lives
------------------
     ethr =  1.00E-06,  avg # of iterations =  3.0

     negative rho (up, down):  4.546E-02 0.000E+00

     total cpu time spent up to now is       35.3 secs

     total energy              =      -2.31742773 Ry
     estimated scf accuracy    <       0.00010947 Ry

     iteration #  2     ecut=    25.00 Ry     beta= 0.70
     Davidson diagonalization with overlap

---- Real-time Memory Report at c_bands before calling an iterative solver
           358 MiB given to the printing process from OS
             0 MiB allocation reported by mallinfo(arena+hblkhd)
           243 MiB available memory on the node where the printing process lives
------------------
     ethr =  5.47E-06,  avg # of iterations =  1.0

     negative rho (up, down):  4.565E-02 0.000E+00

     total cpu time spent up to now is       36.0 secs

     total energy              =      -2.31730795 Ry
     estimated scf accuracy    <       0.00000136 Ry

     iteration #  3     ecut=    25.00 Ry     beta= 0.70
     Davidson diagonalization with overlap

---- Real-time Memory Report at c_bands before calling an iterative solver
           358 MiB given to the printing process from OS
             0 MiB allocation reported by mallinfo(arena+hblkhd)
           229 MiB available memory on the node where the printing process lives
------------------
     ethr =  6.82E-08,  avg # of iterations =  2.0

     negative rho (up, down):  4.568E-02 0.000E+00

     total cpu time spent up to now is       36.8 secs

     total energy              =      -2.31728981 Ry
     estimated scf accuracy    <       0.00000006 Ry

     iteration #  4     ecut=    25.00 Ry     beta= 0.70
     Davidson diagonalization with overlap

---- Real-time Memory Report at c_bands before calling an iterative solver
           358 MiB given to the printing process from OS
             0 MiB allocation reported by mallinfo(arena+hblkhd)
           215 MiB available memory on the node where the printing process lives
------------------
     ethr =  2.95E-09,  avg # of iterations =  2.0

     negative rho (up, down):  4.568E-02 0.000E+00

     total cpu time spent up to now is       37.6 secs

     total energy              =      -2.31728451 Ry
     estimated scf accuracy    <          3.8E-09 Ry

     iteration #  5     ecut=    25.00 Ry     beta= 0.70
     Davidson diagonalization with overlap

---- Real-time Memory Report at c_bands before calling an iterative solver
           358 MiB given to the printing process from OS
             0 MiB allocation reported by mallinfo(arena+hblkhd)
           202 MiB available memory on the node where the printing process lives
------------------
     ethr =  1.88E-10,  avg # of iterations =  3.0

     negative rho (up, down):  4.568E-02 0.000E+00

     total cpu time spent up to now is       38.3 secs

     End of self-consistent calculation

          k =-0.5000-0.5000-0.5000 ( 57016 PWs)   bands (ev):

   -10.4418  -1.1388

     occupation numbers 
     1.0000   0.0000

     highest occupied, lowest unoccupied level (ev):   -10.4418   -1.1388

!    total energy              =      -2.31728854 Ry
     estimated scf accuracy    <          4.2E-10 Ry

     The total energy is the sum of the following terms:
     one-electron contribution =      -4.23658224 Ry
     hartree contribution      =       2.25505996 Ry
     xc contribution           =      -1.39091580 Ry
     ewald contribution        =       1.05514954 Ry

     convergence has been achieved in   5 iterations

     Forces acting on atoms (cartesian axes, Ry/au):

     atom    1 type  1   force =    -0.01321277    0.00000000    0.00000000
     atom    2 type  1   force =     0.01321277    0.00000000    0.00000000
     The non-local contrib.  to forces
     atom    1 type  1   force =     0.10951156    0.00000000    0.00000000
     atom    2 type  1   force =    -0.10740149    0.00000000    0.00000000
     The ionic contribution  to forces
     atom    1 type  1   force =    -1.02652767    0.00000000   -0.00000000
     atom    2 type  1   force =     1.02652767   -0.00000000   -0.00000000
     The local contribution  to forces
     atom    1 type  1   force =     0.90487750    0.00000000    0.00000000
     atom    2 type  1   force =    -0.90474894    0.00000000    0.00000000
     The core correction contribution to forces
     atom    1 type  1   force =     0.00000000    0.00000000    0.00000000
     atom    2 type  1   force =     0.00000000    0.00000000    0.00000000
     The Hubbard contrib.    to forces
     atom    1 type  1   force =     0.00000000    0.00000000    0.00000000
     atom    2 type  1   force =     0.00000000    0.00000000    0.00000000
     The SCF correction term to forces
     atom    1 type  1   force =     0.00013445   -0.00000000   -0.00000000
     atom    2 type  1   force =     0.00004414   -0.00000000   -0.00000000

     Total force =     0.018686     Total SCF correction =     0.000142
     Energy error            =      6.4E-04 Ry
     Gradient error          =      1.3E-02 Ry/Bohr

     number of scf cycles    =   9
     number of bfgs steps    =   2

     energy             old  =      -2.3179320407 Ry
     energy             new  =      -2.3172885429 Ry

     CASE: energy            _new > energy            _old

     new trust radius        =       0.0048470470 bohr
     new conv_thr            =       0.0000000005 Ry


ATOMIC_POSITIONS (angstrom)
H             0.0134527767        0.0000000000        0.0000000000
H             0.7665472233        0.0000000000        0.0000000000



     Writing config-only to output data dir ./.save/
     NEW-OLD atomic charge density approx. for the potential

     negative rho (up, down):  4.568E-02 0.000E+00

     total cpu time spent up to now is       39.1 secs

     Self-consistent Calculation

     iteration #  1     ecut=    25.00 Ry     beta= 0.70
     Davidson diagonalization with overlap

---- Real-time Memory Report at c_bands before calling an iterative solver
           358 MiB given to the printing process from OS
             0 MiB allocation reported by mallinfo(arena+hblkhd)
           368 MiB available memory on the node where the printing process lives
------------------
     ethr =  1.00E-06,  avg # of iterations =  3.0

     negative rho (up, down):  4.507E-02 0.000E+00

     total cpu time spent up to now is       40.0 secs

     total energy              =      -2.31772913 Ry
     estimated scf accuracy    <       0.00006119 Ry

     iteration #  2     ecut=    25.00 Ry     beta= 0.70
     Davidson diagonalization with overlap

---- Real-time Memory Report at c_bands before calling an iterative solver
           358 MiB given to the printing process from OS
             0 MiB allocation reported by mallinfo(arena+hblkhd)
           243 MiB available memory on the node where the printing process lives
------------------
     ethr =  3.06E-06,  avg # of iterations =  1.0

     negative rho (up, down):  4.494E-02 0.000E+00

     total cpu time spent up to now is       40.7 secs

     total energy              =      -2.31782019 Ry
     estimated scf accuracy    <       0.00000080 Ry

     iteration #  3     ecut=    25.00 Ry     beta= 0.70
     Davidson diagonalization with overlap

---- Real-time Memory Report at c_bands before calling an iterative solver
           358 MiB given to the printing process from OS
             0 MiB allocation reported by mallinfo(arena+hblkhd)
           229 MiB available memory on the node where the printing process lives
------------------
     ethr =  4.01E-08,  avg # of iterations =  2.0

     negative rho (up, down):  4.493E-02 0.000E+00

     total cpu time spent up to now is       41.4 secs

     total energy              =      -2.31783202 Ry
     estimated scf accuracy    <       0.00000005 Ry

     iteration #  4     ecut=    25.00 Ry     beta= 0.70
     Davidson diagonalization with overlap

---- Real-time Memory Report at c_bands before calling an iterative solver
           358 MiB given to the printing process from OS
             0 MiB allocation reported by mallinfo(arena+hblkhd)
           215 MiB available memory on the node where the printing process lives
------------------
     ethr =  2.28E-09,  avg # of iterations =  2.0

     negative rho (up, down):  4.492E-02 0.000E+00

     total cpu time spent up to now is       42.2 secs

     total energy              =      -2.31783459 Ry
     estimated scf accuracy    <          8.9E-09 Ry

     iteration #  5     ecut=    25.00 Ry     beta= 0.70
     Davidson diagonalization with overlap

---- Real-time Memory Report at c_bands before calling an iterative solver
           358 MiB given to the printing process from OS
             0 MiB allocation reported by mallinfo(arena+hblkhd)
           202 MiB available memory on the node where the printing process lives
------------------
     ethr =  4.43E-10,  avg # of iterations =  2.0

     negative rho (up, down):  4.492E-02 0.000E+00

     total cpu time spent up to now is       42.9 secs

     End of self-consistent calculation

          k =-0.5000-0.5000-0.5000 ( 57016 PWs)   bands (ev):

   -10.3689  -1.1198

     occupation numbers 
     1.0000   0.0000

     highest occupied, lowest unoccupied level (ev):   -10.3689   -1.1198

!    total energy              =      -2.31783882 Ry
     estimated scf accuracy    <          1.4E-10 Ry

     The total energy is the sum of the following terms:
     one-electron contribution =      -4.19888317 Ry
     hartree contribution      =       2.23525991 Ry
     xc contribution           =      -1.38156536 Ry
     ewald contribution        =       1.02734980 Ry

     convergence has been achieved in   5 iterations

     Forces acting on atoms (cartesian axes, Ry/au):

     atom    1 type  1   force =     0.01068633    0.00000000    0.00000000
     atom    2 type  1   force =    -0.01068633    0.00000000    0.00000000
     The non-local contrib.  to forces
     atom    1 type  1   force =     0.10887317    0.00000000    0.00000000
     atom    2 type  1   force =    -0.10731795    0.00000000    0.00000000
     The ionic contribution  to forces
     atom    1 type  1   force =    -0.98704699   -0.00000000   -0.00000000
     atom    2 type  1   force =     0.98704699    0.00000000   -0.00000000
     The local contribution  to forces
     atom    1 type  1   force =     0.88969563    0.00000000    0.00000000
     atom    2 type  1   force =    -0.88955087    0.00000000    0.00000000
     The core correction contribution to forces
     atom    1 type  1   force =     0.00000000    0.00000000    0.00000000
     atom    2 type  1   force =     0.00000000    0.00000000    0.00000000
     The Hubbard contrib.    to forces
     atom    1 type  1   force =     0.00000000    0.00000000    0.00000000
     atom    2 type  1   force =     0.00000000    0.00000000    0.00000000
     The SCF correction term to forces
     atom    1 type  1   force =    -0.00001014   -0.00000000   -0.00000000
     atom    2 type  1   force =    -0.00003914    0.00000000   -0.00000000

     Total force =     0.015113     Total SCF correction =     0.000040
     Energy error            =      9.3E-05 Ry
     Gradient error          =      1.1E-02 Ry/Bohr

     number of scf cycles    =  10
     number of bfgs steps    =   2

     energy             old  =      -2.3179320407 Ry
     energy             new  =      -2.3178388172 Ry

     CASE: energy            _new > energy            _old

     new trust radius        =       0.0015991901 bohr
     new conv_thr            =       0.0000000005 Ry


ATOMIC_POSITIONS (angstrom)
H             0.0117340849        0.0000000000        0.0000000000
H             0.7682659151        0.0000000000        0.0000000000



     Writing config-only to output data dir ./.save/
     NEW-OLD atomic charge density approx. for the potential

     negative rho (up, down):  4.491E-02 0.000E+00

     total cpu time spent up to now is       43.7 secs

     Self-consistent Calculation

     iteration #  1     ecut=    25.00 Ry     beta= 0.70
     Davidson diagonalization with overlap

---- Real-time Memory Report at c_bands before calling an iterative solver
           358 MiB given to the printing process from OS
             0 MiB allocation reported by mallinfo(arena+hblkhd)
           368 MiB available memory on the node where the printing process lives
------------------
     ethr =  1.00E-06,  avg # of iterations =  2.0

     negative rho (up, down):  4.477E-02 0.000E+00

     total cpu time spent up to now is       44.5 secs

     total energy              =      -2.31788347 Ry
     estimated scf accuracy    <       0.00000295 Ry

     iteration #  2     ecut=    25.00 Ry     beta= 0.70
     Davidson diagonalization with overlap

---- Real-time Memory Report at c_bands before calling an iterative solver
           358 MiB given to the printing process from OS
             0 MiB allocation reported by mallinfo(arena+hblkhd)
           243 MiB available memory on the node where the printing process lives
------------------
     ethr =  1.47E-07,  avg # of iterations =  1.0

     negative rho (up, down):  4.474E-02 0.000E+00

     total cpu time spent up to now is       45.2 secs

     total energy              =      -2.31790311 Ry
     estimated scf accuracy    <       0.00000008 Ry

     iteration #  3     ecut=    25.00 Ry     beta= 0.70
     Davidson diagonalization with overlap

---- Real-time Memory Report at c_bands before calling an iterative solver
           358 MiB given to the printing process from OS
             0 MiB allocation reported by mallinfo(arena+hblkhd)
           229 MiB available memory on the node where the printing process lives
------------------
     ethr =  3.90E-09,  avg # of iterations =  2.0

     negative rho (up, down):  4.473E-02 0.000E+00

     total cpu time spent up to now is       46.0 secs

     total energy              =      -2.31791293 Ry
     estimated scf accuracy    <          1.5E-09 Ry

     iteration #  4     ecut=    25.00 Ry     beta= 0.70
     Davidson diagonalization with overlap

---- Real-time Memory Report at c_bands before calling an iterative solver
           358 MiB given to the printing process from OS
             0 MiB allocation reported by mallinfo(arena+hblkhd)
           215 MiB available memory on the node where the printing process lives
------------------
     ethr =  7.61E-11,  avg # of iterations =  4.0

     negative rho (up, down):  4.473E-02 0.000E+00

     total cpu time spent up to now is       46.8 secs

     total energy              =      -2.31791067 Ry
     estimated scf accuracy    <          2.2E-09 Ry

     iteration #  5     ecut=    25.00 Ry     beta= 0.70
     Davidson diagonalization with overlap

---- Real-time Memory Report at c_bands before calling an iterative solver
           358 MiB given to the printing process from OS
             0 MiB allocation reported by mallinfo(arena+hblkhd)
           202 MiB available memory on the node where the printing process lives
------------------
     ethr =  7.61E-11,  avg # of iterations =  3.0

     negative rho (up, down):  4.473E-02 0.000E+00

     total cpu time spent up to now is       47.6 secs

     End of self-consistent calculation

          k =-0.5000-0.5000-0.5000 ( 57016 PWs)   bands (ev):

   -10.3516  -1.1137

     occupation numbers 
     1.0000   0.0000

     highest occupied, lowest unoccupied level (ev):   -10.3516   -1.1137

!    total energy              =      -2.31790774 Ry
     estimated scf accuracy    <          2.9E-10 Ry

     The total energy is the sum of the following terms:
     one-electron contribution =      -4.19014613 Ry
     hartree contribution      =       2.23071653 Ry
     xc contribution           =      -1.37944551 Ry
     ewald contribution        =       1.02096738 Ry

     convergence has been achieved in   5 iterations

     Forces acting on atoms (cartesian axes, Ry/au):

     atom    1 type  1   force =     0.01603074    0.00000000    0.00000000
     atom    2 type  1   force =    -0.01603074    0.00000000    0.00000000
     The non-local contrib.  to forces
     atom    1 type  1   force =     0.10875324    0.00000000    0.00000000
     atom    2 type  1   force =    -0.10734171    0.00000000    0.00000000
     The ionic contribution  to forces
     atom    1 type  1   force =    -0.97809177   -0.00000000   -0.00000000
     atom    2 type  1   force =     0.97809177    0.00000000   -0.00000000
     The local contribution  to forces
     atom    1 type  1   force =     0.88617347    0.00000000    0.00000000
     atom    2 type  1   force =    -0.88599988    0.00000000    0.00000000
     The core correction contribution to forces
     atom    1 type  1   force =     0.00000000    0.00000000    0.00000000
     atom    2 type  1   force =     0.00000000    0.00000000    0.00000000
     The Hubbard contrib.    to forces
     atom    1 type  1   force =     0.00000000    0.00000000    0.00000000
     atom    2 type  1   force =     0.00000000    0.00000000    0.00000000
     The SCF correction term to forces
     atom    1 type  1   force =    -0.00009874    0.00000000   -0.00000000
     atom    2 type  1   force =    -0.00007545    0.00000000    0.00000000

     Total force =     0.022671     Total SCF correction =     0.000124
     Energy error            =      2.4E-05 Ry
     Gradient error          =      1.6E-02 Ry/Bohr

     number of scf cycles    =  11
     number of bfgs steps    =   2

     energy             old  =      -2.3179320407 Ry
     energy             new  =      -2.3179077362 Ry

     CASE: energy            _new > energy            _old

     new trust radius        =       0.0005681665 bohr
     new conv_thr            =       0.0000000005 Ry


ATOMIC_POSITIONS (angstrom)
H             0.0111884907        0.0000000000        0.0000000000
H             0.7688115093        0.0000000000        0.0000000000



     Writing config-only to output data dir ./.save/
     NEW-OLD atomic charge density approx. for the potential

     negative rho (up, down):  4.473E-02 0.000E+00

     total cpu time spent up to now is       48.4 secs

     Self-consistent Calculation

     iteration #  1     ecut=    25.00 Ry     beta= 0.70
     Davidson diagonalization with overlap

---- Real-time Memory Report at c_bands before calling an iterative solver
           358 MiB given to the printing process from OS
             0 MiB allocation reported by mallinfo(arena+hblkhd)
           368 MiB available memory on the node where the printing process lives
------------------
     ethr =  1.00E-06,  avg # of iterations =  2.0

     Threshold (ethr) on eigenvalues was too large:
     Diagonalizing with lowered threshold

     Davidson diagonalization with overlap

---- Real-time Memory Report at c_bands before calling an iterative solver
           358 MiB given to the printing process from OS
             0 MiB allocation reported by mallinfo(arena+hblkhd)
           369 MiB available memory on the node where the printing process lives
------------------
     ethr =  1.43E-08,  avg # of iterations =  1.0

     negative rho (up, down):  4.468E-02 0.000E+00

     total cpu time spent up to now is       49.4 secs

     total energy              =      -2.31790972 Ry
     estimated scf accuracy    <       0.00000031 Ry

     iteration #  2     ecut=    25.00 Ry     beta= 0.70
     Davidson diagonalization with overlap

---- Real-time Memory Report at c_bands before calling an iterative solver
           358 MiB given to the printing process from OS
             0 MiB allocation reported by mallinfo(arena+hblkhd)
           243 MiB available memory on the node where the printing process lives
------------------
     ethr =  1.56E-08,  avg # of iterations =  2.0

     negative rho (up, down):  4.467E-02 0.000E+00

     total cpu time spent up to now is       50.1 secs

     total energy              =      -2.31791569 Ry
     estimated scf accuracy    <          5.5E-09 Ry

     iteration #  3     ecut=    25.00 Ry     beta= 0.70
     Davidson diagonalization with overlap

---- Real-time Memory Report at c_bands before calling an iterative solver
           358 MiB given to the printing process from OS
             0 MiB allocation reported by mallinfo(arena+hblkhd)
           229 MiB available memory on the node where the printing process lives
------------------
     ethr =  2.76E-10,  avg # of iterations =  2.0

     negative rho (up, down):  4.467E-02 0.000E+00

     total cpu time spent up to now is       50.8 secs

     End of self-consistent calculation

          k =-0.5000-0.5000-0.5000 ( 57016 PWs)   bands (ev):

   -10.3462  -1.1113

     occupation numbers 
     1.0000   0.0000

     highest occupied, lowest unoccupied level (ev):   -10.3462   -1.1113

!    total energy              =      -2.31791563 Ry
     estimated scf accuracy    <          2.9E-10 Ry

     The total energy is the sum of the following terms:
     one-electron contribution =      -4.18738108 Ry
     hartree contribution      =       2.22928034 Ry
     xc contribution           =      -1.37876830 Ry
     ewald contribution        =       1.01895341 Ry

     convergence has been achieved in   3 iterations

     Forces acting on atoms (cartesian axes, Ry/au):

     atom    1 type  1   force =     0.01772227    0.00000000    0.00000000
     atom    2 type  1   force =    -0.01772227    0.00000000    0.00000000
     The non-local contrib.  to forces
     atom    1 type  1   force =     0.10874173    0.00000000    0.00000000
     atom    2 type  1   force =    -0.10731200    0.00000000    0.00000000
[...]

---- Real-time Memory Report at c_bands before calling an iterative solver
           358 MiB given to the printing process from OS
             0 MiB allocation reported by mallinfo(arena+hblkhd)
           243 MiB available memory on the node where the printing process lives
------------------
     ethr =  2.73E-09,  avg # of iterations =  2.0

     negative rho (up, down):  4.465E-02 0.000E+00

     total cpu time spent up to now is      196.8 secs

     total energy              =      -2.31792064 Ry
     estimated scf accuracy    <          6.1E-10 Ry

     iteration #  3     ecut=    25.00 Ry     beta= 0.70
     Davidson diagonalization with overlap

---- Real-time Memory Report at c_bands before calling an iterative solver
           358 MiB given to the printing process from OS
             0 MiB allocation reported by mallinfo(arena+hblkhd)
           229 MiB available memory on the node where the printing process lives
------------------
     ethr =  3.03E-11,  avg # of iterations =  3.0

     negative rho (up, down):  4.465E-02 0.000E+00

     total cpu time spent up to now is      197.5 secs

     End of self-consistent calculation

          k =-0.5000-0.5000-0.5000 ( 57016 PWs)   bands (ev):

   -10.3439  -1.1092

     occupation numbers 
     1.0000   0.0000

     highest occupied, lowest unoccupied level (ev):   -10.3439   -1.1092

!    total energy              =      -2.31791804 Ry
     estimated scf accuracy    <          2.3E-10 Ry

     The total energy is the sum of the following terms:
     one-electron contribution =      -4.18629349 Ry
     hartree contribution      =       2.22872227 Ry
     xc contribution           =      -1.37850484 Ry
     ewald contribution        =       1.01815801 Ry

     convergence has been achieved in   3 iterations

     Forces acting on atoms (cartesian axes, Ry/au):

     atom    1 type  1   force =     0.01836074    0.00000000    0.00000000
     atom    2 type  1   force =    -0.01836074    0.00000000    0.00000000
     The non-local contrib.  to forces
     atom    1 type  1   force =     0.10870205    0.00000000    0.00000000
     atom    2 type  1   force =    -0.10735475    0.00000000    0.00000000
     The ionic contribution  to forces
     atom    1 type  1   force =    -0.97416283    0.00000000   -0.00000000
     atom    2 type  1   force =     0.97416283   -0.00000000   -0.00000000
     The local contribution  to forces
     atom    1 type  1   force =     0.88462088    0.00000000    0.00000000
     atom    2 type  1   force =    -0.88443693    0.00000000    0.00000000
     The core correction contribution to forces
     atom    1 type  1   force =     0.00000000    0.00000000    0.00000000
     atom    2 type  1   force =     0.00000000    0.00000000    0.00000000
     The Hubbard contrib.    to forces
     atom    1 type  1   force =     0.00000000    0.00000000    0.00000000
     atom    2 type  1   force =     0.00000000    0.00000000    0.00000000
     The SCF correction term to forces
     atom    1 type  1   force =    -0.00008987   -0.00000000    0.00000000
     atom    2 type  1   force =    -0.00002241   -0.00000000    0.00000000

     Total force =     0.025966     Total SCF correction =     0.000093
     Energy error            =      1.4E-05 Ry
     Gradient error          =      1.8E-02 Ry/Bohr

     number of scf cycles    =  48
     number of bfgs steps    =   2

     energy             old  =      -2.3179320407 Ry
     energy             new  =      -2.3179180361 Ry

     CASE: energy            _new > energy            _old

     new trust radius        =       0.0000239487 bohr

     trust_radius < trust_radius_min

     resetting bfgs history

     new conv_thr            =       0.0000000005 Ry


ATOMIC_POSITIONS (angstrom)
H             0.0207600866        0.0000000000        0.0000000000
H             0.7592399134        0.0000000000        0.0000000000



     Writing config-only to output data dir ./.save/
     NEW-OLD atomic charge density approx. for the potential

     negative rho (up, down):  4.461E-02 0.000E+00

     total cpu time spent up to now is      198.3 secs

     Self-consistent Calculation

     iteration #  1     ecut=    25.00 Ry     beta= 0.70
     Davidson diagonalization with overlap

---- Real-time Memory Report at c_bands before calling an iterative solver
           358 MiB given to the printing process from OS
             0 MiB allocation reported by mallinfo(arena+hblkhd)
           368 MiB available memory on the node where the printing process lives
------------------
     ethr =  1.00E-06,  avg # of iterations =  3.0

     negative rho (up, down):  4.547E-02 0.000E+00

     total cpu time spent up to now is      199.2 secs

     total energy              =      -2.31742550 Ry
     estimated scf accuracy    <       0.00010879 Ry

     iteration #  2     ecut=    25.00 Ry     beta= 0.70
     Davidson diagonalization with overlap

---- Real-time Memory Report at c_bands before calling an iterative solver
           358 MiB given to the printing process from OS
             0 MiB allocation reported by mallinfo(arena+hblkhd)
           243 MiB available memory on the node where the printing process lives
------------------
     ethr =  5.44E-06,  avg # of iterations =  1.0

     negative rho (up, down):  4.565E-02 0.000E+00

     total cpu time spent up to now is      199.9 secs

     total energy              =      -2.31730759 Ry
     estimated scf accuracy    <       0.00000137 Ry

     iteration #  3     ecut=    25.00 Ry     beta= 0.70
     Davidson diagonalization with overlap

---- Real-time Memory Report at c_bands before calling an iterative solver
           358 MiB given to the printing process from OS
             0 MiB allocation reported by mallinfo(arena+hblkhd)
           229 MiB available memory on the node where the printing process lives
------------------
     ethr =  6.84E-08,  avg # of iterations =  2.0

     negative rho (up, down):  4.568E-02 0.000E+00

     total cpu time spent up to now is      200.7 secs

     total energy              =      -2.31728974 Ry
     estimated scf accuracy    <       0.00000006 Ry

     iteration #  4     ecut=    25.00 Ry     beta= 0.70
     Davidson diagonalization with overlap

---- Real-time Memory Report at c_bands before calling an iterative solver
           358 MiB given to the printing process from OS
             0 MiB allocation reported by mallinfo(arena+hblkhd)
           215 MiB available memory on the node where the printing process lives
------------------
     ethr =  3.08E-09,  avg # of iterations =  2.0

     negative rho (up, down):  4.568E-02 0.000E+00

     total cpu time spent up to now is      201.4 secs

     total energy              =      -2.31728450 Ry
     estimated scf accuracy    <          4.3E-09 Ry

     iteration #  5     ecut=    25.00 Ry     beta= 0.70
     Davidson diagonalization with overlap

---- Real-time Memory Report at c_bands before calling an iterative solver
           358 MiB given to the printing process from OS
             0 MiB allocation reported by mallinfo(arena+hblkhd)
           201 MiB available memory on the node where the printing process lives
------------------
     ethr =  2.15E-10,  avg # of iterations =  3.0

     negative rho (up, down):  4.568E-02 0.000E+00

     total cpu time spent up to now is      202.2 secs

     End of self-consistent calculation

          k =-0.5000-0.5000-0.5000 ( 57016 PWs)   bands (ev):

   -10.4418  -1.1394

     occupation numbers 
     1.0000   0.0000

     highest occupied, lowest unoccupied level (ev):   -10.4418   -1.1394

!    total energy              =      -2.31728854 Ry
     estimated scf accuracy    <          4.3E-10 Ry

     The total energy is the sum of the following terms:
     one-electron contribution =      -4.23658219 Ry
     hartree contribution      =       2.25505984 Ry
     xc contribution           =      -1.39091574 Ry
     ewald contribution        =       1.05514954 Ry

     convergence has been achieved in   5 iterations

     Forces acting on atoms (cartesian axes, Ry/au):

     atom    1 type  1   force =    -0.01321290    0.00000000    0.00000000
     atom    2 type  1   force =     0.01321290    0.00000000    0.00000000
     The non-local contrib.  to forces
     atom    1 type  1   force =     0.10951156    0.00000000    0.00000000
     atom    2 type  1   force =    -0.10740148    0.00000000    0.00000000
     The ionic contribution  to forces
     atom    1 type  1   force =    -1.02652767    0.00000000   -0.00000000
     atom    2 type  1   force =     1.02652767   -0.00000000   -0.00000000
     The local contribution  to forces
     atom    1 type  1   force =     0.90487743    0.00000000    0.00000000
     atom    2 type  1   force =    -0.90474882    0.00000000    0.00000000
     The core correction contribution to forces
     atom    1 type  1   force =     0.00000000    0.00000000    0.00000000
     atom    2 type  1   force =     0.00000000    0.00000000    0.00000000
     The Hubbard contrib.    to forces
     atom    1 type  1   force =     0.00000000    0.00000000    0.00000000
     atom    2 type  1   force =     0.00000000    0.00000000    0.00000000
     The SCF correction term to forces
     atom    1 type  1   force =     0.00013425   -0.00000000    0.00000000
     atom    2 type  1   force =     0.00004402    0.00000000    0.00000000

     Total force =     0.018686     Total SCF correction =     0.000141
     Energy error            =      6.4E-04 Ry
     Gradient error          =      1.3E-02 Ry/Bohr

     number of scf cycles    =  49
     number of bfgs steps    =   2

     energy             old  =      -2.3179320407 Ry
     energy             new  =      -2.3172885449 Ry

     CASE: energy            _new > energy            _old

     new trust radius        =       0.0048470541 bohr
     new conv_thr            =       0.0000000005 Ry


ATOMIC_POSITIONS (angstrom)
H             0.0134527805        0.0000000000        0.0000000000
H             0.7665472195        0.0000000000        0.0000000000



     Writing config-only to output data dir ./.save/
     NEW-OLD atomic charge density approx. for the potential

     negative rho (up, down):  4.568E-02 0.000E+00

     total cpu time spent up to now is      203.0 secs

     Self-consistent Calculation

     iteration #  1     ecut=    25.00 Ry     beta= 0.70
     Davidson diagonalization with overlap

---- Real-time Memory Report at c_bands before calling an iterative solver
           358 MiB given to the printing process from OS
             0 MiB allocation reported by mallinfo(arena+hblkhd)
           368 MiB available memory on the node where the printing process lives
------------------
     ethr =  1.00E-06,  avg # of iterations =  3.0

     negative rho (up, down):  4.507E-02 0.000E+00

     total cpu time spent up to now is      203.8 secs

     total energy              =      -2.31772913 Ry
     estimated scf accuracy    <       0.00006119 Ry

     iteration #  2     ecut=    25.00 Ry     beta= 0.70
     Davidson diagonalization with overlap

---- Real-time Memory Report at c_bands before calling an iterative solver
           358 MiB given to the printing process from OS
             0 MiB allocation reported by mallinfo(arena+hblkhd)
           243 MiB available memory on the node where the printing process lives
------------------
     ethr =  3.06E-06,  avg # of iterations =  1.0

     negative rho (up, down):  4.494E-02 0.000E+00

     total cpu time spent up to now is      204.6 secs

     total energy              =      -2.31782018 Ry
     estimated scf accuracy    <       0.00000080 Ry

     iteration #  3     ecut=    25.00 Ry     beta= 0.70
     Davidson diagonalization with overlap

---- Real-time Memory Report at c_bands before calling an iterative solver
           358 MiB given to the printing process from OS
             0 MiB allocation reported by mallinfo(arena+hblkhd)
           229 MiB available memory on the node where the printing process lives
------------------
     ethr =  4.01E-08,  avg # of iterations =  2.0

     negative rho (up, down):  4.493E-02 0.000E+00

     total cpu time spent up to now is      205.3 secs

     total energy              =      -2.31783198 Ry
     estimated scf accuracy    <       0.00000005 Ry

     iteration #  4     ecut=    25.00 Ry     beta= 0.70
     Davidson diagonalization with overlap

---- Real-time Memory Report at c_bands before calling an iterative solver
           358 MiB given to the printing process from OS
             0 MiB allocation reported by mallinfo(arena+hblkhd)
           215 MiB available memory on the node where the printing process lives
------------------
     ethr =  2.28E-09,  avg # of iterations =  2.0

     negative rho (up, down):  4.492E-02 0.000E+00

     total cpu time spent up to now is      206.1 secs

     total energy              =      -2.31783459 Ry
     estimated scf accuracy    <          8.7E-09 Ry

     iteration #  5     ecut=    25.00 Ry     beta= 0.70
     Davidson diagonalization with overlap

---- Real-time Memory Report at c_bands before calling an iterative solver
           358 MiB given to the printing process from OS
             0 MiB allocation reported by mallinfo(arena+hblkhd)
           201 MiB available memory on the node where the printing process lives
------------------
     ethr =  4.37E-10,  avg # of iterations =  2.0

     negative rho (up, down):  4.492E-02 0.000E+00

     total cpu time spent up to now is      206.8 secs

     End of self-consistent calculation

          k =-0.5000-0.5000-0.5000 ( 57016 PWs)   bands (ev):

   -10.3689  -1.1199

     occupation numbers 
     1.0000   0.0000

     highest occupied, lowest unoccupied level (ev):   -10.3689   -1.1199

!    total energy              =      -2.31783881 Ry
     estimated scf accuracy    <          1.3E-10 Ry

     The total energy is the sum of the following terms:
     one-electron contribution =      -4.19888330 Ry
     hartree contribution      =       2.23526017 Ry
     xc contribution           =      -1.38156549 Ry
     ewald contribution        =       1.02734981 Ry

     convergence has been achieved in   5 iterations

     Forces acting on atoms (cartesian axes, Ry/au):

     atom    1 type  1   force =     0.01068637    0.00000000    0.00000000
     atom    2 type  1   force =    -0.01068637    0.00000000    0.00000000
     The non-local contrib.  to forces
     atom    1 type  1   force =     0.10887318    0.00000000    0.00000000
     atom    2 type  1   force =    -0.10731795    0.00000000    0.00000000
     The ionic contribution  to forces
     atom    1 type  1   force =    -0.98704701   -0.00000000   -0.00000000
     atom    2 type  1   force =     0.98704701    0.00000000   -0.00000000
     The local contribution  to forces
     atom    1 type  1   force =     0.88969592    0.00000000    0.00000000
     atom    2 type  1   force =    -0.88955095    0.00000000    0.00000000
     The core correction contribution to forces
     atom    1 type  1   force =     0.00000000    0.00000000    0.00000000
     atom    2 type  1   force =     0.00000000    0.00000000    0.00000000
     The Hubbard contrib.    to forces
     atom    1 type  1   force =     0.00000000    0.00000000    0.00000000
     atom    2 type  1   force =     0.00000000    0.00000000    0.00000000
     The SCF correction term to forces
     atom    1 type  1   force =    -0.00001033    0.00000000    0.00000000
     atom    2 type  1   force =    -0.00003908    0.00000000   -0.00000000

     Total force =     0.015113     Total SCF correction =     0.000040
     Energy error            =      9.3E-05 Ry
     Gradient error          =      1.1E-02 Ry/Bohr

     number of scf cycles    =  50
     number of bfgs steps    =   2

     energy             old  =      -2.3179320407 Ry
     energy             new  =      -2.3178388137 Ry

     CASE: energy            _new > energy            _old

     new trust radius        =       0.0015991726 bohr

     The maximum number of steps has been reached.

     End of BFGS Geometry Optimization

ATOMIC_POSITIONS (angstrom)
H             0.0117340756        0.0000000000        0.0000000000
H             0.7682659244        0.0000000000        0.0000000000



     Writing config-only to output data dir ./.save/
     NEW-OLD atomic charge density approx. for the potential

     negative rho (up, down):  4.491E-02 0.000E+00

     Writing all to output data dir ./.save/

     init_run     :      0.72s CPU      0.78s WALL (       1 calls)
     electrons    :    166.68s CPU    168.39s WALL (      50 calls)
     update_pot   :     24.66s CPU     25.18s WALL (      50 calls)
     forces       :      9.45s CPU      9.75s WALL (      50 calls)

     Called by init_run:
     wfcinit      :      0.06s CPU      0.07s WALL (       1 calls)
     wfcinit:atom :      0.00s CPU      0.00s WALL (       1 calls)
     wfcinit:wfcr :      0.06s CPU      0.06s WALL (       1 calls)
     potinit      :      0.42s CPU      0.46s WALL (       1 calls)
     hinit0       :      0.04s CPU      0.04s WALL (       1 calls)

     Called by electrons:
     c_bands      :     36.86s CPU     36.89s WALL (     231 calls)
     sum_band     :     23.28s CPU     23.52s WALL (     231 calls)
     v_of_rho     :    107.84s CPU    108.43s WALL (     263 calls)
     v_h          :      6.67s CPU      6.68s WALL (     263 calls)
     v_xc         :    101.16s CPU    101.75s WALL (     263 calls)
     newd         :      8.33s CPU      8.36s WALL (     263 calls)
     mix_rho      :      8.88s CPU      9.73s WALL (     231 calls)

     Called by c_bands:
     init_us_2    :      0.71s CPU      0.71s WALL (     463 calls)
     init_us_2:cp :      0.71s CPU      0.71s WALL (     463 calls)
     cegterg      :     36.38s CPU     36.41s WALL (     231 calls)

     Called by sum_band:
     sum_band:wei :      0.00s CPU      0.00s WALL (     231 calls)
     sum_band:loo :      6.90s CPU      6.92s WALL (     231 calls)
     sum_band:buf :      0.00s CPU      0.00s WALL (     231 calls)
     sum_band:ini :      0.36s CPU      0.37s WALL (     231 calls)
     sum_band:cal :      0.09s CPU      0.09s WALL (     231 calls)
     sum_band:bec :      0.00s CPU      0.00s WALL (     231 calls)
     addusdens    :      2.18s CPU      2.33s WALL (     231 calls)
     addusd:skk   :      0.62s CPU      0.69s WALL (     231 calls)
     addusd:dgemm :      0.45s CPU      0.47s WALL (     231 calls)
     addusd:qvan2 :      0.57s CPU      0.60s WALL (     231 calls)

     Called by *egterg:
     cdiaghg      :      0.02s CPU      0.02s WALL (     665 calls)
     cegterg:over :      0.46s CPU      0.46s WALL (     502 calls)
     cegterg:upda :      0.35s CPU      0.35s WALL (     502 calls)
     cegterg:last :      0.64s CPU      0.65s WALL (     457 calls)
     h_psi        :     34.14s CPU     34.17s WALL (     734 calls)
     s_psi        :      0.20s CPU      0.20s WALL (     734 calls)
     g_psi        :      0.15s CPU      0.15s WALL (     502 calls)

     Called by h_psi:
     h_psi:calbec :      0.28s CPU      0.28s WALL (     734 calls)
     vloc_psi     :     33.53s CPU     33.56s WALL (     734 calls)
     add_vuspsi   :      0.21s CPU      0.21s WALL (     734 calls)

     General routines
     calbec       :      0.44s CPU      0.44s WALL (    1165 calls)
     fft          :     59.49s CPU     59.55s WALL (    3062 calls)
     ffts         :      4.64s CPU      4.64s WALL (     231 calls)
     fftw         :     35.58s CPU     35.61s WALL (    2954 calls)


     PWSCF        :   3m25.07s CPU   3m27.70s WALL


   This run was terminated on:   3:52:46  28Feb2022            

=------------------------------------------------------------------------------=
   JOB DONE.
=------------------------------------------------------------------------------=
