
     Program PWSCF v.7.0 starts on 28Feb2022 at 22:19:10 

     This program is part of the open-source Quantum ESPRESSO suite
     for quantum simulation of materials; please cite
         "P. Giannozzi et al., J. Phys.:Condens. Matter 21 395502 (2009);
         "P. Giannozzi et al., J. Phys.:Condens. Matter 29 465901 (2017);
         "P. Giannozzi et al., J. Chem. Phys. 152 154105 (2020);
          URL http://www.quantum-espresso.org", 
     in publications or presentations arising from this work. More details at
     http://www.quantum-espresso.org/quote

     Serial version
     1283 MiB available memory on the printing compute node when the environment starts

     Waiting for input...
     Reading input from standard input

     Current dimensions of program PWSCF are:
     Max number of different atomic species (ntypx) = 10
     Max number of k-points (npk) =  40000
     Max angular momentum in pseudopotentials (lmaxx) =  4

    ============================================================
    |  pseudopotential report for atomic species:  1           |
    |        pseudo potential version   7   3   2              |
    ------------------------------------------------------------
    |  hydrogen            PBE                  exchange-corr  |
    |  z =   1.    zv( 1) =   1.    exfact =   5.00000         |
    |  ifpcor =  0           atomic energy =  -0.91772 Ry      |
    |  index    orbital      occupation    energy              |
    |    1        100           1.00       -0.48               |
    |  rinner =  0.5000                                        |
    |    new generation scheme:                                |
    |    nbeta =  1     kkbeta =  271     rcloc =    0.6000    |
    |    ibeta    l     epsilon   rcut                         |
    |      1       0      -0.48   0.80                         |
    ============================================================

     IMPORTANT: XC functional enforced from input :
     Exchange-correlation= BLYP
                           (   1   3   1   3   0   0   0)
     Any further DFT definition will be discarded
     Please, verify this is what you really want


     G-vector sticks info
     --------------------
     sticks:   dense  smooth     PW     G-vecs:    dense   smooth      PW
     Sum        2869    2869    793               115313   115313   17071

     Using Slab Decomposition



     bravais-lattice index     =            1
     lattice parameter (alat)  =      30.0000  a.u.
     unit-cell volume          =   27000.0000 (a.u.)^3
     number of atoms/cell      =            2
     number of atomic types    =            1
     number of electrons       =         2.00
     number of Kohn-Sham states=            2
     kinetic-energy cutoff     =      10.0000  Ry
     charge density cutoff     =      40.0000  Ry
     scf convergence threshold =      1.0E-08
     mixing beta               =       0.7000
     number of iterations used =            8  plain     mixing
     Exchange-correlation= BLYP
                           (   1   3   1   3   0   0   0)

     celldm(1)=  30.000000  celldm(2)=   0.000000  celldm(3)=   0.000000
     celldm(4)=   0.000000  celldm(5)=   0.000000  celldm(6)=   0.000000

     crystal axes: (cart. coord. in units of alat)
               a(1) = (   1.000000   0.000000   0.000000 )  
               a(2) = (   0.000000   1.000000   0.000000 )  
               a(3) = (   0.000000   0.000000   1.000000 )  

     reciprocal axes: (cart. coord. in units 2 pi/alat)
               b(1) = (  1.000000  0.000000  0.000000 )  
               b(2) = (  0.000000  1.000000  0.000000 )  
               b(3) = (  0.000000  0.000000  1.000000 )  


     PseudoPot. # 1 for hy read from file:
     /root/q-e/pseudo/H_US.van
     MD5 check sum: a9a9bfe98ff56cf4de197d71fc46bb44
     Pseudo is Ultrasoft, Zval =  1.0
     Generated by Vanderbilt code, v. 7.3.2
     Using radial grid of  399 points,  1 beta functions with: 
                l(1) =   0
     Q(r) pseudized with  8 coefficients,  rinner =    0.500

     atomic species   valence    mass     pseudopotential
        H              1.00     1.00784     hy( 1.00)

      8 Sym. Ops. (no inversion) found


                                    s                        frac. trans.

      isym =  1     identity                                     

 cryst.   s( 1) = (     1          0          0      )
                  (     0          1          0      )
                  (     0          0          1      )

 cart.    s( 1) = (  1.0000000  0.0000000  0.0000000 )
                  (  0.0000000  1.0000000  0.0000000 )
                  (  0.0000000  0.0000000  1.0000000 )


      isym =  2     180 deg rotation - cart. axis [1,0,0]        

 cryst.   s( 2) = (     1          0          0      )
                  (     0         -1          0      )
                  (     0          0         -1      )

 cart.    s( 2) = (  1.0000000  0.0000000  0.0000000 )
                  (  0.0000000 -1.0000000  0.0000000 )
                  (  0.0000000  0.0000000 -1.0000000 )


      isym =  3      90 deg rotation - cart. axis [-1,0,0]       

 cryst.   s( 3) = (     1          0          0      )
                  (     0          0         -1      )
                  (     0          1          0      )

 cart.    s( 3) = (  1.0000000  0.0000000  0.0000000 )
                  (  0.0000000  0.0000000  1.0000000 )
                  (  0.0000000 -1.0000000  0.0000000 )


      isym =  4      90 deg rotation - cart. axis [1,0,0]        

 cryst.   s( 4) = (     1          0          0      )
                  (     0          0          1      )
                  (     0         -1          0      )

 cart.    s( 4) = (  1.0000000  0.0000000  0.0000000 )
                  (  0.0000000  0.0000000 -1.0000000 )
                  (  0.0000000  1.0000000  0.0000000 )


      isym =  5     inv. 180 deg rotation - cart. axis [0,0,1]   

 cryst.   s( 5) = (     1          0          0      )
                  (     0          1          0      )
                  (     0          0         -1      )

 cart.    s( 5) = (  1.0000000  0.0000000  0.0000000 )
                  (  0.0000000  1.0000000  0.0000000 )
                  (  0.0000000  0.0000000 -1.0000000 )


      isym =  6     inv. 180 deg rotation - cart. axis [0,1,0]   

 cryst.   s( 6) = (     1          0          0      )
                  (     0         -1          0      )
                  (     0          0          1      )

 cart.    s( 6) = (  1.0000000  0.0000000  0.0000000 )
                  (  0.0000000 -1.0000000  0.0000000 )
                  (  0.0000000  0.0000000  1.0000000 )


      isym =  7     inv. 180 deg rotation - cart. axis [0,1,1]   

 cryst.   s( 7) = (     1          0          0      )
                  (     0          0         -1      )
                  (     0         -1          0      )

 cart.    s( 7) = (  1.0000000  0.0000000  0.0000000 )
                  (  0.0000000  0.0000000 -1.0000000 )
                  (  0.0000000 -1.0000000  0.0000000 )


      isym =  8     inv. 180 deg rotation - cart. axis [0,1,-1]  

 cryst.   s( 8) = (     1          0          0      )
                  (     0          0          1      )
                  (     0          1          0      )

 cart.    s( 8) = (  1.0000000  0.0000000  0.0000000 )
                  (  0.0000000  0.0000000  1.0000000 )
                  (  0.0000000  1.0000000  0.0000000 )


     point group C_4v (4mm) 
     there are  5 classes
     the character table:

       E     2C4   C2    2s_v  2s_d 
A_1    1.00  1.00  1.00  1.00  1.00
A_2    1.00  1.00  1.00 -1.00 -1.00
B_1    1.00 -1.00  1.00  1.00 -1.00
B_2    1.00 -1.00  1.00 -1.00  1.00
E      2.00  0.00 -2.00  0.00  0.00

     the symmetry operations in each class and the name of the first element:

     E        1
          identity                                               
     2C4      3    4
           90 deg rotation - cart. axis [-1,0,0]                 
     C2       2
          180 deg rotation - cart. axis [1,0,0]                  
     2s_v     5    6
          inv. 180 deg rotation - cart. axis [0,0,1]             
     2s_d     7    8
          inv. 180 deg rotation - cart. axis [0,1,1]             

   Cartesian axes

     site n.     atom                  positions (alat units)
         1           H   tau(   1) = (   0.0000000   0.0000000   0.0000000  )
         2           H   tau(   2) = (   0.2519635   0.0000000   0.0000000  )

   Crystallographic axes

     site n.     atom                  positions (cryst. coord.)
         1           H   tau(   1) = (  0.0000000  0.0000000  0.0000000  )
         2           H   tau(   2) = (  0.2519635  0.0000000  0.0000000  )

     number of k points=     1
                       cart. coord. in units 2pi/alat
        k(    1) = (  -0.5000000  -0.5000000  -0.5000000), wk =   2.0000000

                       cryst. coord.
        k(    1) = (  -0.5000000  -0.5000000  -0.5000000), wk =   2.0000000

     Dense  grid:   115313 G-vectors     FFT dimensions: (  64,  64,  64)

     Dynamical RAM for                 wfc:       0.44 MB

     Dynamical RAM for     wfc (w. buffer):       0.44 MB

     Dynamical RAM for           str. fact:       1.76 MB

     Dynamical RAM for           local pot:       0.00 MB

     Dynamical RAM for          nlocal pot:       0.44 MB

     Dynamical RAM for                qrad:       0.00 MB

     Dynamical RAM for          rho,v,vnew:      11.28 MB

     Dynamical RAM for               rhoin:       3.76 MB

     Dynamical RAM for            rho*nmix:      28.15 MB

     Dynamical RAM for           G-vectors:       7.48 MB

     Dynamical RAM for          h,s,v(r/c):       0.00 MB

     Dynamical RAM for          <psi|beta>:       0.00 MB

     Dynamical RAM for                 psi:       0.88 MB

     Dynamical RAM for                hpsi:       0.88 MB

     Dynamical RAM for                spsi:       0.88 MB

     Dynamical RAM for      wfcinit/wfcrot:       0.88 MB

     Dynamical RAM for           addusdens:      10.56 MB

     Estimated static dynamical RAM per process >      38.68 MB

     Estimated max dynamical RAM per process >      77.39 MB

     Initial potential from superposition of free atoms

     starting charge       2.0000, renormalised to       2.0000

     negative rho (up, down):  2.069E-01 0.000E+00
     Starting wfcs are    2 randomized atomic wfcs

     total cpu time spent up to now is        0.2 secs

     Self-consistent Calculation

     iteration #  1     ecut=    10.00 Ry     beta= 0.70
     Davidson diagonalization with overlap

---- Real-time Memory Report at c_bands before calling an iterative solver
            81 MiB given to the printing process from OS
             0 MiB allocation reported by mallinfo(arena+hblkhd)
          1235 MiB available memory on the node where the printing process lives
------------------
     ethr =  1.00E-02,  avg # of iterations =  1.0

     Threshold (ethr) on eigenvalues was too large:
     Diagonalizing with lowered threshold

     Davidson diagonalization with overlap

---- Real-time Memory Report at c_bands before calling an iterative solver
            81 MiB given to the printing process from OS
             0 MiB allocation reported by mallinfo(arena+hblkhd)
          1227 MiB available memory on the node where the printing process lives
------------------
     ethr =  6.24E-05,  avg # of iterations =  2.0

     negative rho (up, down):  1.770E-01 0.000E+00

     total cpu time spent up to now is        0.5 secs

     total energy              =      -1.79769115 Ry
     estimated scf accuracy    <       0.00111982 Ry

     iteration #  2     ecut=    10.00 Ry     beta= 0.70
     Davidson diagonalization with overlap

---- Real-time Memory Report at c_bands before calling an iterative solver
           101 MiB given to the printing process from OS
             0 MiB allocation reported by mallinfo(arena+hblkhd)
          1195 MiB available memory on the node where the printing process lives
------------------
     ethr =  5.60E-05,  avg # of iterations =  1.0

     negative rho (up, down):  1.768E-01 0.000E+00

     total cpu time spent up to now is        0.7 secs

     total energy              =      -1.79395636 Ry
     estimated scf accuracy    <       0.44352644 Ry

     iteration #  3     ecut=    10.00 Ry     beta= 0.70
     Davidson diagonalization with overlap

---- Real-time Memory Report at c_bands before calling an iterative solver
           105 MiB given to the printing process from OS
             0 MiB allocation reported by mallinfo(arena+hblkhd)
          1191 MiB available memory on the node where the printing process lives
------------------
     ethr =  5.60E-05,  avg # of iterations =  1.0

     negative rho (up, down):  1.670E-01 0.000E+00

     total cpu time spent up to now is        0.9 secs

     total energy              =      -1.80327237 Ry
     estimated scf accuracy    <       0.00887522 Ry

     iteration #  4     ecut=    10.00 Ry     beta= 0.70
     Davidson diagonalization with overlap

---- Real-time Memory Report at c_bands before calling an iterative solver
           109 MiB given to the printing process from OS
             0 MiB allocation reported by mallinfo(arena+hblkhd)
          1188 MiB available memory on the node where the printing process lives
------------------
     ethr =  5.60E-05,  avg # of iterations =  1.0

     negative rho (up, down):  1.657E-01 0.000E+00

     total cpu time spent up to now is        1.1 secs

     total energy              =      -1.80412190 Ry
     estimated scf accuracy    <       0.00195285 Ry

     iteration #  5     ecut=    10.00 Ry     beta= 0.70
     Davidson diagonalization with overlap

---- Real-time Memory Report at c_bands before calling an iterative solver
           112 MiB given to the printing process from OS
             0 MiB allocation reported by mallinfo(arena+hblkhd)
          1184 MiB available memory on the node where the printing process lives
------------------
     ethr =  5.60E-05,  avg # of iterations =  1.0

     negative rho (up, down):  1.657E-01 0.000E+00

     total cpu time spent up to now is        1.3 secs

     total energy              =      -1.80412488 Ry
     estimated scf accuracy    <       0.00002392 Ry

     iteration #  6     ecut=    10.00 Ry     beta= 0.70
     Davidson diagonalization with overlap

---- Real-time Memory Report at c_bands before calling an iterative solver
           116 MiB given to the printing process from OS
             0 MiB allocation reported by mallinfo(arena+hblkhd)
          1181 MiB available memory on the node where the printing process lives
------------------
     ethr =  1.20E-06,  avg # of iterations =  2.0

     negative rho (up, down):  1.658E-01 0.000E+00

     total cpu time spent up to now is        1.5 secs

     total energy              =      -1.80404223 Ry
     estimated scf accuracy    <       0.00001699 Ry

     iteration #  7     ecut=    10.00 Ry     beta= 0.70
     Davidson diagonalization with overlap

---- Real-time Memory Report at c_bands before calling an iterative solver
           119 MiB given to the printing process from OS
             0 MiB allocation reported by mallinfo(arena+hblkhd)
          1177 MiB available memory on the node where the printing process lives
------------------
     ethr =  8.50E-07,  avg # of iterations =  2.0

     negative rho (up, down):  1.658E-01 0.000E+00

     total cpu time spent up to now is        1.7 secs

     total energy              =      -1.80405323 Ry
     estimated scf accuracy    <       0.00000011 Ry

     iteration #  8     ecut=    10.00 Ry     beta= 0.70
     Davidson diagonalization with overlap

---- Real-time Memory Report at c_bands before calling an iterative solver
           123 MiB given to the printing process from OS
             0 MiB allocation reported by mallinfo(arena+hblkhd)
          1174 MiB available memory on the node where the printing process lives
------------------
     ethr =  5.27E-09,  avg # of iterations =  3.0

     negative rho (up, down):  1.658E-01 0.000E+00

     total cpu time spent up to now is        1.9 secs

     total energy              =      -1.80403507 Ry
     estimated scf accuracy    <       0.00015711 Ry

     iteration #  9     ecut=    10.00 Ry     beta= 0.70
     Davidson diagonalization with overlap

---- Real-time Memory Report at c_bands before calling an iterative solver
           126 MiB given to the printing process from OS
             0 MiB allocation reported by mallinfo(arena+hblkhd)
          1170 MiB available memory on the node where the printing process lives
------------------
     ethr =  5.27E-09,  avg # of iterations =  4.0

     negative rho (up, down):  1.658E-01 0.000E+00

     total cpu time spent up to now is        2.2 secs

     total energy              =      -1.80407521 Ry
     estimated scf accuracy    <       0.00001768 Ry

     iteration # 10     ecut=    10.00 Ry     beta= 0.70
     Davidson diagonalization with overlap

---- Real-time Memory Report at c_bands before calling an iterative solver
           130 MiB given to the printing process from OS
             0 MiB allocation reported by mallinfo(arena+hblkhd)
          1167 MiB available memory on the node where the printing process lives
------------------
     ethr =  5.27E-09,  avg # of iterations =  4.0

     negative rho (up, down):  1.658E-01 0.000E+00

     total cpu time spent up to now is        2.4 secs

     total energy              =      -1.80409213 Ry
     estimated scf accuracy    <       0.00005993 Ry

     iteration # 11     ecut=    10.00 Ry     beta= 0.70
     Davidson diagonalization with overlap

---- Real-time Memory Report at c_bands before calling an iterative solver
           130 MiB given to the printing process from OS
             0 MiB allocation reported by mallinfo(arena+hblkhd)
          1167 MiB available memory on the node where the printing process lives
------------------
     ethr =  5.27E-09,  avg # of iterations =  3.0

     negative rho (up, down):  1.658E-01 0.000E+00

     total cpu time spent up to now is        2.6 secs

     total energy              =      -1.80409070 Ry
     estimated scf accuracy    <       0.00000009 Ry

     iteration # 12     ecut=    10.00 Ry     beta= 0.70
     Davidson diagonalization with overlap

---- Real-time Memory Report at c_bands before calling an iterative solver
           130 MiB given to the printing process from OS
             0 MiB allocation reported by mallinfo(arena+hblkhd)
          1167 MiB available memory on the node where the printing process lives
------------------
     ethr =  4.44E-09,  avg # of iterations =  2.0

     negative rho (up, down):  1.658E-01 0.000E+00

     total cpu time spent up to now is        2.9 secs

     total energy              =      -1.80408824 Ry
     estimated scf accuracy    <       0.00000127 Ry

     iteration # 13     ecut=    10.00 Ry     beta= 0.70
     Davidson diagonalization with overlap

---- Real-time Memory Report at c_bands before calling an iterative solver
           130 MiB given to the printing process from OS
             0 MiB allocation reported by mallinfo(arena+hblkhd)
          1167 MiB available memory on the node where the printing process lives
------------------
     ethr =  4.44E-09,  avg # of iterations =  3.0

     negative rho (up, down):  1.658E-01 0.000E+00

     total cpu time spent up to now is        3.1 secs

     total energy              =      -1.80407063 Ry
     estimated scf accuracy    <       0.00002031 Ry

     iteration # 14     ecut=    10.00 Ry     beta= 0.70
     Davidson diagonalization with overlap

---- Real-time Memory Report at c_bands before calling an iterative solver
           130 MiB given to the printing process from OS
             0 MiB allocation reported by mallinfo(arena+hblkhd)
          1167 MiB available memory on the node where the printing process lives
------------------
     ethr =  4.44E-09,  avg # of iterations =  3.0

     negative rho (up, down):  1.658E-01 0.000E+00

     total cpu time spent up to now is        3.3 secs

     total energy              =      -1.80406746 Ry
     estimated scf accuracy    <       0.00004209 Ry

     iteration # 15     ecut=    10.00 Ry     beta= 0.70
     Davidson diagonalization with overlap

---- Real-time Memory Report at c_bands before calling an iterative solver
           130 MiB given to the printing process from OS
             0 MiB allocation reported by mallinfo(arena+hblkhd)
          1167 MiB available memory on the node where the printing process lives
------------------
     ethr =  4.44E-09,  avg # of iterations =  3.0

     negative rho (up, down):  1.658E-01 0.000E+00

     total cpu time spent up to now is        3.5 secs

     total energy              =      -1.80407050 Ry
     estimated scf accuracy    <       0.00001307 Ry

     iteration # 16     ecut=    10.00 Ry     beta= 0.70
     Davidson diagonalization with overlap

---- Real-time Memory Report at c_bands before calling an iterative solver
           130 MiB given to the printing process from OS
             0 MiB allocation reported by mallinfo(arena+hblkhd)
          1166 MiB available memory on the node where the printing process lives
------------------
     ethr =  4.44E-09,  avg # of iterations =  2.0

     negative rho (up, down):  1.658E-01 0.000E+00

     total cpu time spent up to now is        3.7 secs

     total energy              =      -1.80406143 Ry
     estimated scf accuracy    <       0.00000886 Ry

     iteration # 17     ecut=    10.00 Ry     beta= 0.70
     Davidson diagonalization with overlap

---- Real-time Memory Report at c_bands before calling an iterative solver
           130 MiB given to the printing process from OS
             0 MiB allocation reported by mallinfo(arena+hblkhd)
          1166 MiB available memory on the node where the printing process lives
------------------
     ethr =  4.44E-09,  avg # of iterations =  2.0

     negative rho (up, down):  1.658E-01 0.000E+00

     total cpu time spent up to now is        4.0 secs

     total energy              =      -1.80406931 Ry
     estimated scf accuracy    <       0.00003079 Ry

     iteration # 18     ecut=    10.00 Ry     beta= 0.70
     Davidson diagonalization with overlap

---- Real-time Memory Report at c_bands before calling an iterative solver
           130 MiB given to the printing process from OS
             0 MiB allocation reported by mallinfo(arena+hblkhd)
          1166 MiB available memory on the node where the printing process lives
------------------
     ethr =  4.44E-09,  avg # of iterations =  2.0

     negative rho (up, down):  1.658E-01 0.000E+00

     total cpu time spent up to now is        4.2 secs

     total energy              =      -1.80403918 Ry
     estimated scf accuracy    <       0.00001039 Ry

     iteration # 19     ecut=    10.00 Ry     beta= 0.70
     Davidson diagonalization with overlap

---- Real-time Memory Report at c_bands before calling an iterative solver
           130 MiB given to the printing process from OS
             0 MiB allocation reported by mallinfo(arena+hblkhd)
          1166 MiB available memory on the node where the printing process lives
------------------
     ethr =  4.44E-09,  avg # of iterations =  4.0

     negative rho (up, down):  1.658E-01 0.000E+00

     total cpu time spent up to now is        4.4 secs

     total energy              =      -1.80405673 Ry
     estimated scf accuracy    <       0.00000063 Ry

     iteration # 20     ecut=    10.00 Ry     beta= 0.70
     Davidson diagonalization with overlap

---- Real-time Memory Report at c_bands before calling an iterative solver
           130 MiB given to the printing process from OS
             0 MiB allocation reported by mallinfo(arena+hblkhd)
          1166 MiB available memory on the node where the printing process lives
------------------
     ethr =  4.44E-09,  avg # of iterations =  4.0

     negative rho (up, down):  1.658E-01 0.000E+00

     total cpu time spent up to now is        4.6 secs

     total energy              =      -1.80406576 Ry
     estimated scf accuracy    <       0.00000067 Ry

     iteration # 21     ecut=    10.00 Ry     beta= 0.70
     Davidson diagonalization with overlap

---- Real-time Memory Report at c_bands before calling an iterative solver
           130 MiB given to the printing process from OS
             0 MiB allocation reported by mallinfo(arena+hblkhd)
          1166 MiB available memory on the node where the printing process lives
------------------
     ethr =  4.44E-09,  avg # of iterations =  4.0

     negative rho (up, down):  1.658E-01 0.000E+00

     total cpu time spent up to now is        4.9 secs

     total energy              =      -1.80406389 Ry
     estimated scf accuracy    <       0.00000876 Ry

     iteration # 22     ecut=    10.00 Ry     beta= 0.70
     Davidson diagonalization with overlap

---- Real-time Memory Report at c_bands before calling an iterative solver
           130 MiB given to the printing process from OS
             0 MiB allocation reported by mallinfo(arena+hblkhd)
          1166 MiB available memory on the node where the printing process lives
------------------
     ethr =  4.44E-09,  avg # of iterations =  4.0

     negative rho (up, down):  1.658E-01 0.000E+00

     total cpu time spent up to now is        5.1 secs

     total energy              =      -1.80405329 Ry
     estimated scf accuracy    <       0.00000062 Ry

     iteration # 23     ecut=    10.00 Ry     beta= 0.70
     Davidson diagonalization with overlap

---- Real-time Memory Report at c_bands before calling an iterative solver
           130 MiB given to the printing process from OS
             0 MiB allocation reported by mallinfo(arena+hblkhd)
          1166 MiB available memory on the node where the printing process lives
------------------
     ethr =  4.44E-09,  avg # of iterations =  4.0

     negative rho (up, down):  1.658E-01 0.000E+00

     total cpu time spent up to now is        5.3 secs

     total energy              =      -1.80407489 Ry
     estimated scf accuracy    <       0.00000211 Ry

     iteration # 24     ecut=    10.00 Ry     beta= 0.70
     Davidson diagonalization with overlap

---- Real-time Memory Report at c_bands before calling an iterative solver
           130 MiB given to the printing process from OS
             0 MiB allocation reported by mallinfo(arena+hblkhd)
          1166 MiB available memory on the node where the printing process lives
------------------
     ethr =  4.44E-09,  avg # of iterations =  4.0

     negative rho (up, down):  1.658E-01 0.000E+00

     total cpu time spent up to now is        5.6 secs

     total energy              =      -1.80406957 Ry
     estimated scf accuracy    <       0.00000103 Ry

     iteration # 25     ecut=    10.00 Ry     beta= 0.70
     Davidson diagonalization with overlap

---- Real-time Memory Report at c_bands before calling an iterative solver
           130 MiB given to the printing process from OS
             0 MiB allocation reported by mallinfo(arena+hblkhd)
          1166 MiB available memory on the node where the printing process lives
------------------
     ethr =  4.44E-09,  avg # of iterations =  2.0

     negative rho (up, down):  1.658E-01 0.000E+00

     total cpu time spent up to now is        5.8 secs

     total energy              =      -1.80406968 Ry
     estimated scf accuracy    <       0.00001092 Ry

     iteration # 26     ecut=    10.00 Ry     beta= 0.70
     Davidson diagonalization with overlap

---- Real-time Memory Report at c_bands before calling an iterative solver
           130 MiB given to the printing process from OS
             0 MiB allocation reported by mallinfo(arena+hblkhd)
          1166 MiB available memory on the node where the printing process lives
------------------
     ethr =  4.44E-09,  avg # of iterations =  1.0

     negative rho (up, down):  1.658E-01 0.000E+00

     total cpu time spent up to now is        6.0 secs

     total energy              =      -1.80406962 Ry
     estimated scf accuracy    <       0.00001144 Ry

     iteration # 27     ecut=    10.00 Ry     beta= 0.70
     Davidson diagonalization with overlap

---- Real-time Memory Report at c_bands before calling an iterative solver
           130 MiB given to the printing process from OS
             0 MiB allocation reported by mallinfo(arena+hblkhd)
          1166 MiB available memory on the node where the printing process lives
------------------
     ethr =  4.44E-09,  avg # of iterations =  1.0

     negative rho (up, down):  1.659E-01 0.000E+00

     total cpu time spent up to now is        6.2 secs

     total energy              =      -1.80402173 Ry
     estimated scf accuracy    <       0.00001133 Ry

     iteration # 28     ecut=    10.00 Ry     beta= 0.70
     Davidson diagonalization with overlap

---- Real-time Memory Report at c_bands before calling an iterative solver
           130 MiB given to the printing process from OS
             0 MiB allocation reported by mallinfo(arena+hblkhd)
          1166 MiB available memory on the node where the printing process lives
------------------
     ethr =  4.44E-09,  avg # of iterations =  4.0

     negative rho (up, down):  1.659E-01 0.000E+00

     total cpu time spent up to now is        6.5 secs

     total energy              =      -1.80405151 Ry
     estimated scf accuracy    <       0.00002976 Ry

     iteration # 29     ecut=    10.00 Ry     beta= 0.70
     Davidson diagonalization with overlap

---- Real-time Memory Report at c_bands before calling an iterative solver
           130 MiB given to the printing process from OS
             0 MiB allocation reported by mallinfo(arena+hblkhd)
          1166 MiB available memory on the node where the printing process lives
------------------
     ethr =  4.44E-09,  avg # of iterations =  4.0

     negative rho (up, down):  1.659E-01 0.000E+00

     total cpu time spent up to now is        6.7 secs

     total energy              =      -1.80404160 Ry
     estimated scf accuracy    <       0.00000957 Ry

     iteration # 30     ecut=    10.00 Ry     beta= 0.70
     Davidson diagonalization with overlap

---- Real-time Memory Report at c_bands before calling an iterative solver
           130 MiB given to the printing process from OS
             0 MiB allocation reported by mallinfo(arena+hblkhd)
          1166 MiB available memory on the node where the printing process lives
------------------
     ethr =  4.44E-09,  avg # of iterations =  3.0

     negative rho (up, down):  1.658E-01 0.000E+00

     total cpu time spent up to now is        6.9 secs

     total energy              =      -1.80405046 Ry
     estimated scf accuracy    <       0.00002285 Ry

     iteration # 31     ecut=    10.00 Ry     beta= 0.70
     Davidson diagonalization with overlap

---- Real-time Memory Report at c_bands before calling an iterative solver
           130 MiB given to the printing process from OS
             0 MiB allocation reported by mallinfo(arena+hblkhd)
          1166 MiB available memory on the node where the printing process lives
------------------
     ethr =  4.44E-09,  avg # of iterations =  3.0

     negative rho (up, down):  1.658E-01 0.000E+00

     total cpu time spent up to now is        7.2 secs

     total energy              =      -1.80405093 Ry
     estimated scf accuracy    <       0.00000349 Ry

     iteration # 32     ecut=    10.00 Ry     beta= 0.70
     Davidson diagonalization with overlap

---- Real-time Memory Report at c_bands before calling an iterative solver
           130 MiB given to the printing process from OS
             0 MiB allocation reported by mallinfo(arena+hblkhd)
          1166 MiB available memory on the node where the printing process lives
------------------
     ethr =  4.44E-09,  avg # of iterations =  4.0

     negative rho (up, down):  1.658E-01 0.000E+00

     total cpu time spent up to now is        7.4 secs

     total energy              =      -1.80406705 Ry
     estimated scf accuracy    <       0.00000160 Ry

     iteration # 33     ecut=    10.00 Ry     beta= 0.70
     Davidson diagonalization with overlap

---- Real-time Memory Report at c_bands before calling an iterative solver
           130 MiB given to the printing process from OS
             0 MiB allocation reported by mallinfo(arena+hblkhd)
          1166 MiB available memory on the node where the printing process lives
------------------
     ethr =  4.44E-09,  avg # of iterations =  4.0

     negative rho (up, down):  1.659E-01 0.000E+00

     total cpu time spent up to now is        7.6 secs

     total energy              =      -1.80406969 Ry
     estimated scf accuracy    <       0.00002816 Ry

     iteration # 34     ecut=    10.00 Ry     beta= 0.70
     Davidson diagonalization with overlap

---- Real-time Memory Report at c_bands before calling an iterative solver
           130 MiB given to the printing process from OS
             0 MiB allocation reported by mallinfo(arena+hblkhd)
          1166 MiB available memory on the node where the printing process lives
------------------
     ethr =  4.44E-09,  avg # of iterations =  3.0

     negative rho (up, down):  1.658E-01 0.000E+00

     total cpu time spent up to now is        7.8 secs

     total energy              =      -1.80407531 Ry
     estimated scf accuracy    <       0.00001876 Ry

     iteration # 35     ecut=    10.00 Ry     beta= 0.70
     Davidson diagonalization with overlap

---- Real-time Memory Report at c_bands before calling an iterative solver
           130 MiB given to the printing process from OS
             0 MiB allocation reported by mallinfo(arena+hblkhd)
          1166 MiB available memory on the node where the printing process lives
------------------
     ethr =  4.44E-09,  avg # of iterations =  3.0

     negative rho (up, down):  1.658E-01 0.000E+00

     total cpu time spent up to now is        8.1 secs

     total energy              =      -1.80406789 Ry
     estimated scf accuracy    <       0.00000050 Ry

     iteration # 36     ecut=    10.00 Ry     beta= 0.70
     Davidson diagonalization with overlap

---- Real-time Memory Report at c_bands before calling an iterative solver
           130 MiB given to the printing process from OS
             0 MiB allocation reported by mallinfo(arena+hblkhd)
          1166 MiB available memory on the node where the printing process lives
------------------
     ethr =  4.44E-09,  avg # of iterations =  3.0

     negative rho (up, down):  1.658E-01 0.000E+00

     total cpu time spent up to now is        8.3 secs

     total energy              =      -1.80406870 Ry
     estimated scf accuracy    <       0.00001514 Ry

     iteration # 37     ecut=    10.00 Ry     beta= 0.70
     Davidson diagonalization with overlap

---- Real-time Memory Report at c_bands before calling an iterative solver
           130 MiB given to the printing process from OS
             0 MiB allocation reported by mallinfo(arena+hblkhd)
          1166 MiB available memory on the node where the printing process lives
------------------
     ethr =  4.44E-09,  avg # of iterations =  1.0

     negative rho (up, down):  1.658E-01 0.000E+00

     total cpu time spent up to now is        8.5 secs

     total energy              =      -1.80407515 Ry
     estimated scf accuracy    <       0.00001522 Ry

     iteration # 38     ecut=    10.00 Ry     beta= 0.70
     Davidson diagonalization with overlap

---- Real-time Memory Report at c_bands before calling an iterative solver
           130 MiB given to the printing process from OS
             0 MiB allocation reported by mallinfo(arena+hblkhd)
          1166 MiB available memory on the node where the printing process lives
------------------
     ethr =  4.44E-09,  avg # of iterations =  3.0

     negative rho (up, down):  1.658E-01 0.000E+00

     total cpu time spent up to now is        8.8 secs

     total energy              =      -1.80409279 Ry
     estimated scf accuracy    <       0.00005489 Ry

     iteration # 39     ecut=    10.00 Ry     beta= 0.70
     Davidson diagonalization with overlap

---- Real-time Memory Report at c_bands before calling an iterative solver
           130 MiB given to the printing process from OS
             0 MiB allocation reported by mallinfo(arena+hblkhd)
          1166 MiB available memory on the node where the printing process lives
------------------
     ethr =  4.44E-09,  avg # of iterations =  2.0

     negative rho (up, down):  1.658E-01 0.000E+00

     total cpu time spent up to now is        9.0 secs

     total energy              =      -1.80406971 Ry
     estimated scf accuracy    <       0.00001620 Ry

     iteration # 40     ecut=    10.00 Ry     beta= 0.70
     Davidson diagonalization with overlap

---- Real-time Memory Report at c_bands before calling an iterative solver
           130 MiB given to the printing process from OS
             0 MiB allocation reported by mallinfo(arena+hblkhd)
          1166 MiB available memory on the node where the printing process lives
------------------
     ethr =  4.44E-09,  avg # of iterations =  3.0

     negative rho (up, down):  1.658E-01 0.000E+00

     total cpu time spent up to now is        9.3 secs

     total energy              =      -1.80407280 Ry
     estimated scf accuracy    <       0.00002410 Ry

     iteration # 41     ecut=    10.00 Ry     beta= 0.70
     Davidson diagonalization with overlap

---- Real-time Memory Report at c_bands before calling an iterative solver
           130 MiB given to the printing process from OS
             0 MiB allocation reported by mallinfo(arena+hblkhd)
          1166 MiB available memory on the node where the printing process lives
------------------
     ethr =  4.44E-09,  avg # of iterations =  3.0

     negative rho (up, down):  1.658E-01 0.000E+00

     total cpu time spent up to now is        9.5 secs

     total energy              =      -1.80405671 Ry
     estimated scf accuracy    <       0.00005048 Ry

     iteration # 42     ecut=    10.00 Ry     beta= 0.70
     Davidson diagonalization with overlap

---- Real-time Memory Report at c_bands before calling an iterative solver
           130 MiB given to the printing process from OS
             0 MiB allocation reported by mallinfo(arena+hblkhd)
          1166 MiB available memory on the node where the printing process lives
------------------
     ethr =  4.44E-09,  avg # of iterations =  4.0

     negative rho (up, down):  1.658E-01 0.000E+00

     total cpu time spent up to now is        9.8 secs

     total energy              =      -1.80405427 Ry
     estimated scf accuracy    <       0.00001085 Ry

     iteration # 43     ecut=    10.00 Ry     beta= 0.70
     Davidson diagonalization with overlap

---- Real-time Memory Report at c_bands before calling an iterative solver
           130 MiB given to the printing process from OS
             0 MiB allocation reported by mallinfo(arena+hblkhd)
          1166 MiB available memory on the node where the printing process lives
------------------
     ethr =  4.44E-09,  avg # of iterations =  3.0

     negative rho (up, down):  1.658E-01 0.000E+00

     total cpu time spent up to now is       10.0 secs

     total energy              =      -1.80405373 Ry
     estimated scf accuracy    <       0.00002132 Ry

     iteration # 44     ecut=    10.00 Ry     beta= 0.70
     Davidson diagonalization with overlap

---- Real-time Memory Report at c_bands before calling an iterative solver
           130 MiB given to the printing process from OS
             0 MiB allocation reported by mallinfo(arena+hblkhd)
          1166 MiB available memory on the node where the printing process lives
------------------
     ethr =  4.44E-09,  avg # of iterations =  3.0

     negative rho (up, down):  1.658E-01 0.000E+00

     total cpu time spent up to now is       10.3 secs

     total energy              =      -1.80405518 Ry
     estimated scf accuracy    <       0.00002789 Ry

     iteration # 45     ecut=    10.00 Ry     beta= 0.70
     Davidson diagonalization with overlap

---- Real-time Memory Report at c_bands before calling an iterative solver
           130 MiB given to the printing process from OS
             0 MiB allocation reported by mallinfo(arena+hblkhd)
          1166 MiB available memory on the node where the printing process lives
------------------
     ethr =  4.44E-09,  avg # of iterations =  1.0

     negative rho (up, down):  1.658E-01 0.000E+00

     total cpu time spent up to now is       10.5 secs

     total energy              =      -1.80405561 Ry
     estimated scf accuracy    <       0.00003001 Ry

     iteration # 46     ecut=    10.00 Ry     beta= 0.70
     Davidson diagonalization with overlap

---- Real-time Memory Report at c_bands before calling an iterative solver
           130 MiB given to the printing process from OS
             0 MiB allocation reported by mallinfo(arena+hblkhd)
          1166 MiB available memory on the node where the printing process lives
------------------
     ethr =  4.44E-09,  avg # of iterations =  1.0

     negative rho (up, down):  1.659E-01 0.000E+00

     total cpu time spent up to now is       10.7 secs

     total energy              =      -1.80401465 Ry
     estimated scf accuracy    <       0.00003053 Ry

     iteration # 47     ecut=    10.00 Ry     beta= 0.70
     Davidson diagonalization with overlap

---- Real-time Memory Report at c_bands before calling an iterative solver
           130 MiB given to the printing process from OS
             0 MiB allocation reported by mallinfo(arena+hblkhd)
          1166 MiB available memory on the node where the printing process lives
------------------
     ethr =  4.44E-09,  avg # of iterations =  4.0

     negative rho (up, down):  1.659E-01 0.000E+00

     total cpu time spent up to now is       11.0 secs

     total energy              =      -1.80402214 Ry
     estimated scf accuracy    <       0.00000880 Ry

     iteration # 48     ecut=    10.00 Ry     beta= 0.70
     Davidson diagonalization with overlap

---- Real-time Memory Report at c_bands before calling an iterative solver
           130 MiB given to the printing process from OS
             0 MiB allocation reported by mallinfo(arena+hblkhd)
          1166 MiB available memory on the node where the printing process lives
------------------
     ethr =  4.44E-09,  avg # of iterations =  3.0

     negative rho (up, down):  1.658E-01 0.000E+00

     total cpu time spent up to now is       11.2 secs

     total energy              =      -1.80409342 Ry
     estimated scf accuracy    <       0.00000374 Ry

     iteration # 49     ecut=    10.00 Ry     beta= 0.70
     Davidson diagonalization with overlap

---- Real-time Memory Report at c_bands before calling an iterative solver
           130 MiB given to the printing process from OS
             0 MiB allocation reported by mallinfo(arena+hblkhd)
          1166 MiB available memory on the node where the printing process lives
------------------
     ethr =  4.44E-09,  avg # of iterations =  4.0

     negative rho (up, down):  1.658E-01 0.000E+00

     total cpu time spent up to now is       11.5 secs

     total energy              =      -1.80409218 Ry
     estimated scf accuracy    <       0.00002133 Ry

     iteration # 50     ecut=    10.00 Ry     beta= 0.70
     Davidson diagonalization with overlap

---- Real-time Memory Report at c_bands before calling an iterative solver
           130 MiB given to the printing process from OS
             0 MiB allocation reported by mallinfo(arena+hblkhd)
          1166 MiB available memory on the node where the printing process lives
------------------
     ethr =  4.44E-09,  avg # of iterations =  3.0

     negative rho (up, down):  1.658E-01 0.000E+00

     total cpu time spent up to now is       11.8 secs

     total energy              =      -1.80408138 Ry
     estimated scf accuracy    <       0.00004410 Ry

     iteration # 51     ecut=    10.00 Ry     beta= 0.70
     Davidson diagonalization with overlap

---- Real-time Memory Report at c_bands before calling an iterative solver
           130 MiB given to the printing process from OS
             0 MiB allocation reported by mallinfo(arena+hblkhd)
          1166 MiB available memory on the node where the printing process lives
------------------
     ethr =  4.44E-09,  avg # of iterations =  4.0

     negative rho (up, down):  1.658E-01 0.000E+00

     total cpu time spent up to now is       12.0 secs

     total energy              =      -1.80407131 Ry
     estimated scf accuracy    <       0.00001763 Ry

     iteration # 52     ecut=    10.00 Ry     beta= 0.70
     Davidson diagonalization with overlap

---- Real-time Memory Report at c_bands before calling an iterative solver
           130 MiB given to the printing process from OS
             0 MiB allocation reported by mallinfo(arena+hblkhd)
          1166 MiB available memory on the node where the printing process lives
------------------
     ethr =  4.44E-09,  avg # of iterations =  3.0

     negative rho (up, down):  1.659E-01 0.000E+00

     total cpu time spent up to now is       12.2 secs

     total energy              =      -1.80404078 Ry
     estimated scf accuracy    <       0.00000206 Ry

     iteration # 53     ecut=    10.00 Ry     beta= 0.70
     Davidson diagonalization with overlap

---- Real-time Memory Report at c_bands before calling an iterative solver
           130 MiB given to the printing process from OS
             0 MiB allocation reported by mallinfo(arena+hblkhd)
          1166 MiB available memory on the node where the printing process lives
------------------
     ethr =  4.44E-09,  avg # of iterations =  4.0

     negative rho (up, down):  1.659E-01 0.000E+00

     total cpu time spent up to now is       12.5 secs

     total energy              =      -1.80401885 Ry
     estimated scf accuracy    <       0.00000184 Ry

     iteration # 54     ecut=    10.00 Ry     beta= 0.70
     Davidson diagonalization with overlap

---- Real-time Memory Report at c_bands before calling an iterative solver
           130 MiB given to the printing process from OS
             0 MiB allocation reported by mallinfo(arena+hblkhd)
          1166 MiB available memory on the node where the printing process lives
------------------
     ethr =  4.44E-09,  avg # of iterations =  4.0

     negative rho (up, down):  1.658E-01 0.000E+00

     total cpu time spent up to now is       12.7 secs

     total energy              =      -1.80405097 Ry
     estimated scf accuracy    <       0.00000515 Ry

     iteration # 55     ecut=    10.00 Ry     beta= 0.70
     Davidson diagonalization with overlap

---- Real-time Memory Report at c_bands before calling an iterative solver
           130 MiB given to the printing process from OS
             0 MiB allocation reported by mallinfo(arena+hblkhd)
          1166 MiB available memory on the node where the printing process lives
------------------
     ethr =  4.44E-09,  avg # of iterations =  4.0

     negative rho (up, down):  1.658E-01 0.000E+00

     total cpu time spent up to now is       13.0 secs

     total energy              =      -1.80406632 Ry
     estimated scf accuracy    <       0.00000351 Ry

     iteration # 56     ecut=    10.00 Ry     beta= 0.70
     Davidson diagonalization with overlap

---- Real-time Memory Report at c_bands before calling an iterative solver
           130 MiB given to the printing process from OS
             0 MiB allocation reported by mallinfo(arena+hblkhd)
          1166 MiB available memory on the node where the printing process lives
------------------
     ethr =  4.44E-09,  avg # of iterations =  4.0

     negative rho (up, down):  1.658E-01 0.000E+00

     total cpu time spent up to now is       13.2 secs

     total energy              =      -1.80406680 Ry
     estimated scf accuracy    <       0.00000178 Ry

     iteration # 57     ecut=    10.00 Ry     beta= 0.70
     Davidson diagonalization with overlap

---- Real-time Memory Report at c_bands before calling an iterative solver
           130 MiB given to the printing process from OS
             0 MiB allocation reported by mallinfo(arena+hblkhd)
          1166 MiB available memory on the node where the printing process lives
------------------
     ethr =  4.44E-09,  avg # of iterations =  2.0

     negative rho (up, down):  1.658E-01 0.000E+00

     total cpu time spent up to now is       13.5 secs

     total energy              =      -1.80406072 Ry
     estimated scf accuracy    <       0.00000145 Ry

     iteration # 58     ecut=    10.00 Ry     beta= 0.70
     Davidson diagonalization with overlap

---- Real-time Memory Report at c_bands before calling an iterative solver
           130 MiB given to the printing process from OS
             0 MiB allocation reported by mallinfo(arena+hblkhd)
          1166 MiB available memory on the node where the printing process lives
------------------
     ethr =  4.44E-09,  avg # of iterations =  3.0

     negative rho (up, down):  1.658E-01 0.000E+00

     total cpu time spent up to now is       13.7 secs

     total energy              =      -1.80406643 Ry
     estimated scf accuracy    <       0.00000283 Ry

     iteration # 59     ecut=    10.00 Ry     beta= 0.70
     Davidson diagonalization with overlap

---- Real-time Memory Report at c_bands before calling an iterative solver
           130 MiB given to the printing process from OS
             0 MiB allocation reported by mallinfo(arena+hblkhd)
          1166 MiB available memory on the node where the printing process lives
------------------
     ethr =  4.44E-09,  avg # of iterations =  3.0

     negative rho (up, down):  1.658E-01 0.000E+00

     total cpu time spent up to now is       13.9 secs

     total energy              =      -1.80405524 Ry
     estimated scf accuracy    <       0.00000027 Ry

     iteration # 60     ecut=    10.00 Ry     beta= 0.70
     Davidson diagonalization with overlap

---- Real-time Memory Report at c_bands before calling an iterative solver
           130 MiB given to the printing process from OS
             0 MiB allocation reported by mallinfo(arena+hblkhd)
          1166 MiB available memory on the node where the printing process lives
------------------
     ethr =  4.44E-09,  avg # of iterations =  3.0

     negative rho (up, down):  1.658E-01 0.000E+00

     total cpu time spent up to now is       14.2 secs

     total energy              =      -1.80405521 Ry
     estimated scf accuracy    <       0.00000181 Ry

     iteration # 61     ecut=    10.00 Ry     beta= 0.70
     Davidson diagonalization with overlap

---- Real-time Memory Report at c_bands before calling an iterative solver
           130 MiB given to the printing process from OS
             0 MiB allocation reported by mallinfo(arena+hblkhd)
          1166 MiB available memory on the node where the printing process lives
------------------
     ethr =  4.44E-09,  avg # of iterations =  1.0

     negative rho (up, down):  1.658E-01 0.000E+00

     total cpu time spent up to now is       14.4 secs

     total energy              =      -1.80405885 Ry
     estimated scf accuracy    <       0.00000180 Ry

     iteration # 62     ecut=    10.00 Ry     beta= 0.70
     Davidson diagonalization with overlap

---- Real-time Memory Report at c_bands before calling an iterative solver
           130 MiB given to the printing process from OS
             0 MiB allocation reported by mallinfo(arena+hblkhd)
          1166 MiB available memory on the node where the printing process lives
------------------
     ethr =  4.44E-09,  avg # of iterations =  4.0

     negative rho (up, down):  1.658E-01 0.000E+00

     total cpu time spent up to now is       14.6 secs

     total energy              =      -1.80406558 Ry
     estimated scf accuracy    <       0.00001079 Ry

     iteration # 63     ecut=    10.00 Ry     beta= 0.70
     Davidson diagonalization with overlap

---- Real-time Memory Report at c_bands before calling an iterative solver
           130 MiB given to the printing process from OS
             0 MiB allocation reported by mallinfo(arena+hblkhd)
          1166 MiB available memory on the node where the printing process lives
------------------
     ethr =  4.44E-09,  avg # of iterations =  3.0

     negative rho (up, down):  1.659E-01 0.000E+00

     total cpu time spent up to now is       14.9 secs

     total energy              =      -1.80404274 Ry
     estimated scf accuracy    <       0.00001180 Ry

     iteration # 64     ecut=    10.00 Ry     beta= 0.70
     Davidson diagonalization with overlap

---- Real-time Memory Report at c_bands before calling an iterative solver
           130 MiB given to the printing process from OS
             0 MiB allocation reported by mallinfo(arena+hblkhd)
          1166 MiB available memory on the node where the printing process lives
------------------
     ethr =  4.44E-09,  avg # of iterations =  4.0

     negative rho (up, down):  1.659E-01 0.000E+00

     total cpu time spent up to now is       15.1 secs

     total energy              =      -1.80402362 Ry
     estimated scf accuracy    <       0.00000642 Ry

     iteration # 65     ecut=    10.00 Ry     beta= 0.70
     Davidson diagonalization with overlap

---- Real-time Memory Report at c_bands before calling an iterative solver
           130 MiB given to the printing process from OS
             0 MiB allocation reported by mallinfo(arena+hblkhd)
          1166 MiB available memory on the node where the printing process lives
------------------
     ethr =  4.44E-09,  avg # of iterations =  3.0

     negative rho (up, down):  1.658E-01 0.000E+00

     total cpu time spent up to now is       15.3 secs

     total energy              =      -1.80405766 Ry
     estimated scf accuracy    <       0.00000114 Ry

     iteration # 66     ecut=    10.00 Ry     beta= 0.70
     Davidson diagonalization with overlap

---- Real-time Memory Report at c_bands before calling an iterative solver
           130 MiB given to the printing process from OS
             0 MiB allocation reported by mallinfo(arena+hblkhd)
          1166 MiB available memory on the node where the printing process lives
------------------
     ethr =  4.44E-09,  avg # of iterations =  4.0

     negative rho (up, down):  1.658E-01 0.000E+00

     total cpu time spent up to now is       15.6 secs

     total energy              =      -1.80408298 Ry
     estimated scf accuracy    <       0.00000050 Ry

     iteration # 67     ecut=    10.00 Ry     beta= 0.70
     Davidson diagonalization with overlap

---- Real-time Memory Report at c_bands before calling an iterative solver
           130 MiB given to the printing process from OS
             0 MiB allocation reported by mallinfo(arena+hblkhd)
          1166 MiB available memory on the node where the printing process lives
------------------
     ethr =  4.44E-09,  avg # of iterations =  4.0

     negative rho (up, down):  1.658E-01 0.000E+00

     total cpu time spent up to now is       15.8 secs

     total energy              =      -1.80408954 Ry
     estimated scf accuracy    <       0.00000724 Ry

     iteration # 68     ecut=    10.00 Ry     beta= 0.70
     Davidson diagonalization with overlap

---- Real-time Memory Report at c_bands before calling an iterative solver
           130 MiB given to the printing process from OS
             0 MiB allocation reported by mallinfo(arena+hblkhd)
          1166 MiB available memory on the node where the printing process lives
------------------
     ethr =  4.44E-09,  avg # of iterations =  1.0

     negative rho (up, down):  1.658E-01 0.000E+00

     total cpu time spent up to now is       16.0 secs

     total energy              =      -1.80408314 Ry
     estimated scf accuracy    <       0.00000679 Ry

     iteration # 69     ecut=    10.00 Ry     beta= 0.70
     Davidson diagonalization with overlap

---- Real-time Memory Report at c_bands before calling an iterative solver
           130 MiB given to the printing process from OS
             0 MiB allocation reported by mallinfo(arena+hblkhd)
          1166 MiB available memory on the node where the printing process lives
------------------
     ethr =  4.44E-09,  avg # of iterations =  3.0

     negative rho (up, down):  1.658E-01 0.000E+00

     total cpu time spent up to now is       16.2 secs

     total energy              =      -1.80408338 Ry
     estimated scf accuracy    <       0.00002211 Ry

     iteration # 70     ecut=    10.00 Ry     beta= 0.70
     Davidson diagonalization with overlap

---- Real-time Memory Report at c_bands before calling an iterative solver
           130 MiB given to the printing process from OS
             0 MiB allocation reported by mallinfo(arena+hblkhd)
          1166 MiB available memory on the node where the printing process lives
------------------
     ethr =  4.44E-09,  avg # of iterations =  1.0

     negative rho (up, down):  1.658E-01 0.000E+00

     total cpu time spent up to now is       16.4 secs

     total energy              =      -1.80408048 Ry
     estimated scf accuracy    <       0.00002248 Ry

     iteration # 71     ecut=    10.00 Ry     beta= 0.70
     Davidson diagonalization with overlap

---- Real-time Memory Report at c_bands before calling an iterative solver
           130 MiB given to the printing process from OS
             0 MiB allocation reported by mallinfo(arena+hblkhd)
          1166 MiB available memory on the node where the printing process lives
------------------
     ethr =  4.44E-09,  avg # of iterations =  3.0

     negative rho (up, down):  1.658E-01 0.000E+00

     total cpu time spent up to now is       16.7 secs

     total energy              =      -1.80405053 Ry
     estimated scf accuracy    <       0.00000856 Ry

     iteration # 72     ecut=    10.00 Ry     beta= 0.70
     Davidson diagonalization with overlap

---- Real-time Memory Report at c_bands before calling an iterative solver
           130 MiB given to the printing process from OS
             0 MiB allocation reported by mallinfo(arena+hblkhd)
          1166 MiB available memory on the node where the printing process lives
------------------
     ethr =  4.44E-09,  avg # of iterations =  4.0

     negative rho (up, down):  1.658E-01 0.000E+00

     total cpu time spent up to now is       16.9 secs

     total energy              =      -1.80404802 Ry
     estimated scf accuracy    <       0.00000079 Ry

     iteration # 73     ecut=    10.00 Ry     beta= 0.70
     Davidson diagonalization with overlap

---- Real-time Memory Report at c_bands before calling an iterative solver
           130 MiB given to the printing process from OS
             0 MiB allocation reported by mallinfo(arena+hblkhd)
          1166 MiB available memory on the node where the printing process lives
------------------
     ethr =  4.44E-09,  avg # of iterations =  4.0

     negative rho (up, down):  1.658E-01 0.000E+00

     total cpu time spent up to now is       17.1 secs

     total energy              =      -1.80404526 Ry
     estimated scf accuracy    <       0.00001888 Ry

     iteration # 74     ecut=    10.00 Ry     beta= 0.70
     Davidson diagonalization with overlap

---- Real-time Memory Report at c_bands before calling an iterative solver
           130 MiB given to the printing process from OS
             0 MiB allocation reported by mallinfo(arena+hblkhd)
          1166 MiB available memory on the node where the printing process lives
------------------
     ethr =  4.44E-09,  avg # of iterations =  3.0

     negative rho (up, down):  1.658E-01 0.000E+00

     total cpu time spent up to now is       17.4 secs

     total energy              =      -1.80404743 Ry
     estimated scf accuracy    <       0.00001711 Ry

     iteration # 75     ecut=    10.00 Ry     beta= 0.70
     Davidson diagonalization with overlap

---- Real-time Memory Report at c_bands before calling an iterative solver
           130 MiB given to the printing process from OS
             0 MiB allocation reported by mallinfo(arena+hblkhd)
          1166 MiB available memory on the node where the printing process lives
------------------
     ethr =  4.44E-09,  avg # of iterations =  2.0

     negative rho (up, down):  1.658E-01 0.000E+00

     total cpu time spent up to now is       17.6 secs

     total energy              =      -1.80405602 Ry
     estimated scf accuracy    <       0.00001515 Ry

     iteration # 76     ecut=    10.00 Ry     beta= 0.70
     Davidson diagonalization with overlap

---- Real-time Memory Report at c_bands before calling an iterative solver
           130 MiB given to the printing process from OS
             0 MiB allocation reported by mallinfo(arena+hblkhd)
          1166 MiB available memory on the node where the printing process lives
------------------
     ethr =  4.44E-09,  avg # of iterations =  4.0

     negative rho (up, down):  1.658E-01 0.000E+00

     total cpu time spent up to now is       17.8 secs

     total energy              =      -1.80407154 Ry
     estimated scf accuracy    <       0.00001281 Ry

     iteration # 77     ecut=    10.00 Ry     beta= 0.70
     Davidson diagonalization with overlap

---- Real-time Memory Report at c_bands before calling an iterative solver
           130 MiB given to the printing process from OS
             0 MiB allocation reported by mallinfo(arena+hblkhd)
          1166 MiB available memory on the node where the printing process lives
------------------
     ethr =  4.44E-09,  avg # of iterations =  4.0

     negative rho (up, down):  1.658E-01 0.000E+00

     total cpu time spent up to now is       18.0 secs

     total energy              =      -1.80407525 Ry
     estimated scf accuracy    <       0.00001971 Ry

     iteration # 78     ecut=    10.00 Ry     beta= 0.70
     Davidson diagonalization with overlap

---- Real-time Memory Report at c_bands before calling an iterative solver
           130 MiB given to the printing process from OS
             0 MiB allocation reported by mallinfo(arena+hblkhd)
          1166 MiB available memory on the node where the printing process lives
------------------
     ethr =  4.44E-09,  avg # of iterations =  3.0

     negative rho (up, down):  1.658E-01 0.000E+00

     total cpu time spent up to now is       18.3 secs

     total energy              =      -1.80407484 Ry
     estimated scf accuracy    <       0.00001061 Ry

     iteration # 79     ecut=    10.00 Ry     beta= 0.70
     Davidson diagonalization with overlap

---- Real-time Memory Report at c_bands before calling an iterative solver
           130 MiB given to the printing process from OS
             0 MiB allocation reported by mallinfo(arena+hblkhd)
          1166 MiB available memory on the node where the printing process lives
------------------
     ethr =  4.44E-09,  avg # of iterations =  3.0

     negative rho (up, down):  1.658E-01 0.000E+00

     total cpu time spent up to now is       18.5 secs

     total energy              =      -1.80408864 Ry
     estimated scf accuracy    <       0.00001475 Ry

     iteration # 80     ecut=    10.00 Ry     beta= 0.70
     Davidson diagonalization with overlap

---- Real-time Memory Report at c_bands before calling an iterative solver
           130 MiB given to the printing process from OS
             0 MiB allocation reported by mallinfo(arena+hblkhd)
          1166 MiB available memory on the node where the printing process lives
------------------
     ethr =  4.44E-09,  avg # of iterations =  3.0

     negative rho (up, down):  1.658E-01 0.000E+00

     total cpu time spent up to now is       18.8 secs

     total energy              =      -1.80409283 Ry
     estimated scf accuracy    <       0.00001230 Ry

     iteration # 81     ecut=    10.00 Ry     beta= 0.70
     Davidson diagonalization with overlap

---- Real-time Memory Report at c_bands before calling an iterative solver
           130 MiB given to the printing process from OS
             0 MiB allocation reported by mallinfo(arena+hblkhd)
          1166 MiB available memory on the node where the printing process lives
------------------
     ethr =  4.44E-09,  avg # of iterations =  2.0

     negative rho (up, down):  1.658E-01 0.000E+00

     total cpu time spent up to now is       19.0 secs

     total energy              =      -1.80408563 Ry
     estimated scf accuracy    <       0.00001809 Ry

     iteration # 82     ecut=    10.00 Ry     beta= 0.70
     Davidson diagonalization with overlap

---- Real-time Memory Report at c_bands before calling an iterative solver
           130 MiB given to the printing process from OS
             0 MiB allocation reported by mallinfo(arena+hblkhd)
          1166 MiB available memory on the node where the printing process lives
------------------
     ethr =  4.44E-09,  avg # of iterations =  3.0

     negative rho (up, down):  1.658E-01 0.000E+00

     total cpu time spent up to now is       19.2 secs

     total energy              =      -1.80405283 Ry
     estimated scf accuracy    <       0.00000870 Ry

     iteration # 83     ecut=    10.00 Ry     beta= 0.70
     Davidson diagonalization with overlap

---- Real-time Memory Report at c_bands before calling an iterative solver
           130 MiB given to the printing process from OS
             0 MiB allocation reported by mallinfo(arena+hblkhd)
          1166 MiB available memory on the node where the printing process lives
------------------
     ethr =  4.44E-09,  avg # of iterations =  4.0

     negative rho (up, down):  1.658E-01 0.000E+00

     total cpu time spent up to now is       19.5 secs

     total energy              =      -1.80407848 Ry
     estimated scf accuracy    <       0.00000810 Ry

     iteration # 84     ecut=    10.00 Ry     beta= 0.70
     Davidson diagonalization with overlap

---- Real-time Memory Report at c_bands before calling an iterative solver
           130 MiB given to the printing process from OS
             0 MiB allocation reported by mallinfo(arena+hblkhd)
          1166 MiB available memory on the node where the printing process lives
------------------
     ethr =  4.44E-09,  avg # of iterations =  4.0

     negative rho (up, down):  1.658E-01 0.000E+00

     total cpu time spent up to now is       19.7 secs

     total energy              =      -1.80406671 Ry
     estimated scf accuracy    <       0.00000517 Ry

     iteration # 85     ecut=    10.00 Ry     beta= 0.70
     Davidson diagonalization with overlap

---- Real-time Memory Report at c_bands before calling an iterative solver
           130 MiB given to the printing process from OS
             0 MiB allocation reported by mallinfo(arena+hblkhd)
          1166 MiB available memory on the node where the printing process lives
------------------
     ethr =  4.44E-09,  avg # of iterations =  3.0

     negative rho (up, down):  1.659E-01 0.000E+00

     total cpu time spent up to now is       19.9 secs

     total energy              =      -1.80403956 Ry
     estimated scf accuracy    <       0.00000472 Ry

     iteration # 86     ecut=    10.00 Ry     beta= 0.70
     Davidson diagonalization with overlap

---- Real-time Memory Report at c_bands before calling an iterative solver
           130 MiB given to the printing process from OS
             0 MiB allocation reported by mallinfo(arena+hblkhd)
          1166 MiB available memory on the node where the printing process lives
------------------
     ethr =  4.44E-09,  avg # of iterations =  4.0

     negative rho (up, down):  1.658E-01 0.000E+00

     total cpu time spent up to now is       20.2 secs

     total energy              =      -1.80407841 Ry
     estimated scf accuracy    <       0.00000665 Ry

     iteration # 87     ecut=    10.00 Ry     beta= 0.70
     Davidson diagonalization with overlap

---- Real-time Memory Report at c_bands before calling an iterative solver
           130 MiB given to the printing process from OS
             0 MiB allocation reported by mallinfo(arena+hblkhd)
          1166 MiB available memory on the node where the printing process lives
------------------
     ethr =  4.44E-09,  avg # of iterations =  4.0

     negative rho (up, down):  1.658E-01 0.000E+00

     total cpu time spent up to now is       20.4 secs

     total energy              =      -1.80405985 Ry
     estimated scf accuracy    <       0.00000374 Ry

     iteration # 88     ecut=    10.00 Ry     beta= 0.70
     Davidson diagonalization with overlap

---- Real-time Memory Report at c_bands before calling an iterative solver
           130 MiB given to the printing process from OS
             0 MiB allocation reported by mallinfo(arena+hblkhd)
          1166 MiB available memory on the node where the printing process lives
------------------
     ethr =  4.44E-09,  avg # of iterations =  3.0

     negative rho (up, down):  1.658E-01 0.000E+00

     total cpu time spent up to now is       20.6 secs

     total energy              =      -1.80408682 Ry
     estimated scf accuracy    <       0.00000146 Ry

     iteration # 89     ecut=    10.00 Ry     beta= 0.70
     Davidson diagonalization with overlap

---- Real-time Memory Report at c_bands before calling an iterative solver
           130 MiB given to the printing process from OS
             0 MiB allocation reported by mallinfo(arena+hblkhd)
          1166 MiB available memory on the node where the printing process lives
------------------
     ethr =  4.44E-09,  avg # of iterations =  3.0

     negative rho (up, down):  1.658E-01 0.000E+00

     total cpu time spent up to now is       20.8 secs

     total energy              =      -1.80407452 Ry
     estimated scf accuracy    <       0.00001320 Ry

     iteration # 90     ecut=    10.00 Ry     beta= 0.70
     Davidson diagonalization with overlap

---- Real-time Memory Report at c_bands before calling an iterative solver
           130 MiB given to the printing process from OS
             0 MiB allocation reported by mallinfo(arena+hblkhd)
          1166 MiB available memory on the node where the printing process lives
------------------
     ethr =  4.44E-09,  avg # of iterations =  3.0

     negative rho (up, down):  1.658E-01 0.000E+00

     total cpu time spent up to now is       21.1 secs

     total energy              =      -1.80405860 Ry
     estimated scf accuracy    <       0.00001480 Ry

     iteration # 91     ecut=    10.00 Ry     beta= 0.70
     Davidson diagonalization with overlap

---- Real-time Memory Report at c_bands before calling an iterative solver
           130 MiB given to the printing process from OS
             0 MiB allocation reported by mallinfo(arena+hblkhd)
          1166 MiB available memory on the node where the printing process lives
------------------
     ethr =  4.44E-09,  avg # of iterations =  3.0

     negative rho (up, down):  1.658E-01 0.000E+00

     total cpu time spent up to now is       21.3 secs

     total energy              =      -1.80407220 Ry
     estimated scf accuracy    <       0.00000166 Ry

     iteration # 92     ecut=    10.00 Ry     beta= 0.70
     Davidson diagonalization with overlap

---- Real-time Memory Report at c_bands before calling an iterative solver
           130 MiB given to the printing process from OS
             0 MiB allocation reported by mallinfo(arena+hblkhd)
          1166 MiB available memory on the node where the printing process lives
------------------
     ethr =  4.44E-09,  avg # of iterations =  3.0

     negative rho (up, down):  1.658E-01 0.000E+00

     total cpu time spent up to now is       21.5 secs

     total energy              =      -1.80407295 Ry
     estimated scf accuracy    <       0.00000005 Ry

     iteration # 93     ecut=    10.00 Ry     beta= 0.70
     Davidson diagonalization with overlap

---- Real-time Memory Report at c_bands before calling an iterative solver
           130 MiB given to the printing process from OS
             0 MiB allocation reported by mallinfo(arena+hblkhd)
          1166 MiB available memory on the node where the printing process lives
------------------
     ethr =  2.72E-09,  avg # of iterations =  1.0

     negative rho (up, down):  1.658E-01 0.000E+00

     total cpu time spent up to now is       21.7 secs

     total energy              =      -1.80407004 Ry
     estimated scf accuracy    <       0.00000006 Ry

     iteration # 94     ecut=    10.00 Ry     beta= 0.70
     Davidson diagonalization with overlap

---- Real-time Memory Report at c_bands before calling an iterative solver
           130 MiB given to the printing process from OS
             0 MiB allocation reported by mallinfo(arena+hblkhd)
          1166 MiB available memory on the node where the printing process lives
------------------
     ethr =  2.72E-09,  avg # of iterations =  3.0

     negative rho (up, down):  1.658E-01 0.000E+00

     total cpu time spent up to now is       21.9 secs

     total energy              =      -1.80405093 Ry
     estimated scf accuracy    <       0.00000072 Ry

     iteration # 95     ecut=    10.00 Ry     beta= 0.70
     Davidson diagonalization with overlap

---- Real-time Memory Report at c_bands before calling an iterative solver
           130 MiB given to the printing process from OS
             0 MiB allocation reported by mallinfo(arena+hblkhd)
          1166 MiB available memory on the node where the printing process lives
------------------
     ethr =  2.72E-09,  avg # of iterations =  4.0

     negative rho (up, down):  1.658E-01 0.000E+00

     total cpu time spent up to now is       22.2 secs

     total energy              =      -1.80408700 Ry
     estimated scf accuracy    <       0.00000006 Ry

     iteration # 96     ecut=    10.00 Ry     beta= 0.70
     Davidson diagonalization with overlap

---- Real-time Memory Report at c_bands before calling an iterative solver
           130 MiB given to the printing process from OS
             0 MiB allocation reported by mallinfo(arena+hblkhd)
          1166 MiB available memory on the node where the printing process lives
------------------
     ethr =  2.72E-09,  avg # of iterations =  4.0

     negative rho (up, down):  1.658E-01 0.000E+00

     total cpu time spent up to now is       22.4 secs

     total energy              =      -1.80407420 Ry
     estimated scf accuracy    <       0.00000566 Ry

     iteration # 97     ecut=    10.00 Ry     beta= 0.70
     Davidson diagonalization with overlap

---- Real-time Memory Report at c_bands before calling an iterative solver
           130 MiB given to the printing process from OS
             0 MiB allocation reported by mallinfo(arena+hblkhd)
          1166 MiB available memory on the node where the printing process lives
------------------
     ethr =  2.72E-09,  avg # of iterations =  4.0

     negative rho (up, down):  1.659E-01 0.000E+00

     total cpu time spent up to now is       22.6 secs

     total energy              =      -1.80406217 Ry
     estimated scf accuracy    <       0.00000015 Ry

     iteration # 98     ecut=    10.00 Ry     beta= 0.70
     Davidson diagonalization with overlap

---- Real-time Memory Report at c_bands before calling an iterative solver
           130 MiB given to the printing process from OS
             0 MiB allocation reported by mallinfo(arena+hblkhd)
          1166 MiB available memory on the node where the printing process lives
------------------
     ethr =  2.72E-09,  avg # of iterations =  3.0

     negative rho (up, down):  1.658E-01 0.000E+00

     total cpu time spent up to now is       22.8 secs

     total energy              =      -1.80407378 Ry
     estimated scf accuracy    <       0.00000940 Ry

     iteration # 99     ecut=    10.00 Ry     beta= 0.70
     Davidson diagonalization with overlap

---- Real-time Memory Report at c_bands before calling an iterative solver
           130 MiB given to the printing process from OS
             0 MiB allocation reported by mallinfo(arena+hblkhd)
          1166 MiB available memory on the node where the printing process lives
------------------
     ethr =  2.72E-09,  avg # of iterations =  3.0

     negative rho (up, down):  1.659E-01 0.000E+00

     total cpu time spent up to now is       23.1 secs

     total energy              =      -1.80406038 Ry
     estimated scf accuracy    <       0.00000144 Ry

     iteration #100     ecut=    10.00 Ry     beta= 0.70
     Davidson diagonalization with overlap

---- Real-time Memory Report at c_bands before calling an iterative solver
           130 MiB given to the printing process from OS
             0 MiB allocation reported by mallinfo(arena+hblkhd)
          1166 MiB available memory on the node where the printing process lives
------------------
     ethr =  2.72E-09,  avg # of iterations =  4.0

     negative rho (up, down):  1.659E-01 0.000E+00

     total cpu time spent up to now is       23.3 secs

     total energy              =      -1.80406613 Ry
     estimated scf accuracy    <       0.00000164 Ry

     End of self-consistent calculation

     convergence NOT achieved after 100 iterations: stopping

     Writing config to output data dir ./.save/
     Message from routine punch:
     wavefunctions written to file

     init_run     :      0.22s CPU      0.23s WALL (       1 calls)
     electrons    :     22.88s CPU     23.07s WALL (       1 calls)

     Called by init_run:
     wfcinit      :      0.02s CPU      0.02s WALL (       1 calls)
     wfcinit:atom :      0.00s CPU      0.00s WALL (       1 calls)
     wfcinit:wfcr :      0.01s CPU      0.01s WALL (       1 calls)
     potinit      :      0.14s CPU      0.14s WALL (       1 calls)
     hinit0       :      0.01s CPU      0.02s WALL (       1 calls)

     Called by electrons:
     c_bands      :      4.28s CPU      4.34s WALL (     101 calls)
     sum_band     :      2.61s CPU      2.63s WALL (     101 calls)
     v_of_rho     :     12.22s CPU     12.30s WALL (     101 calls)
     v_h          :      0.66s CPU      0.66s WALL (     101 calls)
     v_xc         :     11.56s CPU     11.63s WALL (     101 calls)
     newd         :      0.83s CPU      0.83s WALL (     101 calls)
     mix_rho      :      2.81s CPU      2.84s WALL (     101 calls)

     Called by c_bands:
     init_us_2    :      0.08s CPU      0.08s WALL (     203 calls)
     init_us_2:cp :      0.08s CPU      0.08s WALL (     203 calls)
     cegterg      :      4.23s CPU      4.28s WALL (     101 calls)

     Called by sum_band:
     sum_band:wei :      0.00s CPU      0.00s WALL (     101 calls)
     sum_band:loo :      0.72s CPU      0.73s WALL (     101 calls)
     sum_band:buf :      0.00s CPU      0.00s WALL (     101 calls)
     sum_band:ini :      0.04s CPU      0.04s WALL (     101 calls)
     sum_band:cal :      0.01s CPU      0.01s WALL (     101 calls)
     sum_band:bec :      0.00s CPU      0.00s WALL (     101 calls)
     addusdens    :      0.25s CPU      0.25s WALL (     101 calls)
     addusd:skk   :      0.07s CPU      0.07s WALL (     101 calls)
     addusd:dgemm :      0.05s CPU      0.05s WALL (     101 calls)
     addusd:qvan2 :      0.06s CPU      0.06s WALL (     101 calls)

     Called by *egterg:
     cdiaghg      :      0.01s CPU      0.01s WALL (     399 calls)
     cegterg:over :      0.06s CPU      0.06s WALL (     299 calls)
     cegterg:upda :      0.04s CPU      0.04s WALL (     299 calls)
     cegterg:last :      0.08s CPU      0.08s WALL (     224 calls)
     h_psi        :      3.96s CPU      4.01s WALL (     401 calls)
     s_psi        :      0.02s CPU      0.02s WALL (     401 calls)
     g_psi        :      0.02s CPU      0.02s WALL (     299 calls)

     Called by h_psi:
     h_psi:calbec :      0.03s CPU      0.03s WALL (     401 calls)
     vloc_psi     :      3.89s CPU      3.94s WALL (     401 calls)
     add_vuspsi   :      0.03s CPU      0.03s WALL (     401 calls)

     General routines
     calbec       :      0.04s CPU      0.04s WALL (     502 calls)
     fft          :      5.69s CPU      5.72s WALL (    1112 calls)
     ffts         :      0.54s CPU      0.54s WALL (     101 calls)
     fftw         :      4.07s CPU      4.12s WALL (    1410 calls)
     davcio       :      0.00s CPU      0.01s WALL (      19 calls)


     PWSCF        :     23.12s CPU     23.33s WALL


   This run was terminated on:  22:19:33  28Feb2022            

=------------------------------------------------------------------------------=
   JOB DONE.
=------------------------------------------------------------------------------=
