
     Program PWSCF v.7.0 starts on 28Feb2022 at  3:42:52 

     This program is part of the open-source Quantum ESPRESSO suite
     for quantum simulation of materials; please cite
         "P. Giannozzi et al., J. Phys.:Condens. Matter 21 395502 (2009);
         "P. Giannozzi et al., J. Phys.:Condens. Matter 29 465901 (2017);
         "P. Giannozzi et al., J. Chem. Phys. 152 154105 (2020);
          URL http://www.quantum-espresso.org", 
     in publications or presentations arising from this work. More details at
     http://www.quantum-espresso.org/quote

     Serial version
     547 MiB available memory on the printing compute node when the environment starts

     Waiting for input...
     Reading input from standard input

     Current dimensions of program PWSCF are:
     Max number of different atomic species (ntypx) = 10
     Max number of k-points (npk) =  40000
     Max angular momentum in pseudopotentials (lmaxx) =  4

     File ./.update deleted, as requested

     File ./.bfgs deleted, as requested

    ============================================================
    |  pseudopotential report for atomic species:  1           |
    |        pseudo potential version   7   3   2              |
    ------------------------------------------------------------
    |  hydrogen            PBE                  exchange-corr  |
    |  z =   1.    zv( 1) =   1.    exfact =   5.00000         |
    |  ifpcor =  0           atomic energy =  -0.91772 Ry      |
    |  index    orbital      occupation    energy              |
    |    1        100           1.00       -0.48               |
    |  rinner =  0.5000                                        |
    |    new generation scheme:                                |
    |    nbeta =  1     kkbeta =  271     rcloc =    0.6000    |
    |    ibeta    l     epsilon   rcut                         |
    |      1       0      -0.48   0.80                         |
    ============================================================

     IMPORTANT: XC functional enforced from input :
     Exchange-correlation= BLYP
                           (   1   3   1   3   0   0   0)
     Any further DFT definition will be discarded
     Please, verify this is what you really want


     G-vector sticks info
     --------------------
     sticks:   dense  smooth     PW     G-vecs:    dense   smooth      PW
     Sum        7153    7153   1925               455863   455863   63461

     Using Slab Decomposition



     bravais-lattice index     =            1
     lattice parameter (alat)  =      30.0000  a.u.
     unit-cell volume          =   27000.0000 (a.u.)^3
     number of atoms/cell      =            2
     number of atomic types    =            1
     number of electrons       =         2.00
     number of Kohn-Sham states=            2
     kinetic-energy cutoff     =      25.0000  Ry
     charge density cutoff     =     100.0000  Ry
     scf convergence threshold =      1.0E-08
     mixing beta               =       0.7000
     number of iterations used =            8  plain     mixing
     energy convergence thresh.=      1.0E-04
     force convergence thresh. =      1.0E-03
     Exchange-correlation= BLYP
                           (   1   3   1   3   0   0   0)
     nstep                     =           50


     celldm(1)=  30.000000  celldm(2)=   0.000000  celldm(3)=   0.000000
     celldm(4)=   0.000000  celldm(5)=   0.000000  celldm(6)=   0.000000

     crystal axes: (cart. coord. in units of alat)
               a(1) = (   1.000000   0.000000   0.000000 )  
               a(2) = (   0.000000   1.000000   0.000000 )  
               a(3) = (   0.000000   0.000000   1.000000 )  

     reciprocal axes: (cart. coord. in units 2 pi/alat)
               b(1) = (  1.000000  0.000000  0.000000 )  
               b(2) = (  0.000000  1.000000  0.000000 )  
               b(3) = (  0.000000  0.000000  1.000000 )  


     PseudoPot. # 1 for hy read from file:
     /root/q-e/pseudo/H_US.van
     MD5 check sum: a9a9bfe98ff56cf4de197d71fc46bb44
     Pseudo is Ultrasoft, Zval =  1.0
     Generated by Vanderbilt code, v. 7.3.2
     Using radial grid of  399 points,  1 beta functions with: 
                l(1) =   0
     Q(r) pseudized with  8 coefficients,  rinner =    0.500

     atomic species   valence    mass     pseudopotential
        H              1.00     1.00784     hy( 1.00)

      8 Sym. Ops. (no inversion) found


                                    s                        frac. trans.

      isym =  1     identity                                     

 cryst.   s( 1) = (     1          0          0      )
                  (     0          1          0      )
                  (     0          0          1      )

 cart.    s( 1) = (  1.0000000  0.0000000  0.0000000 )
                  (  0.0000000  1.0000000  0.0000000 )
                  (  0.0000000  0.0000000  1.0000000 )


      isym =  2     180 deg rotation - cart. axis [1,0,0]        

 cryst.   s( 2) = (     1          0          0      )
                  (     0         -1          0      )
                  (     0          0         -1      )

 cart.    s( 2) = (  1.0000000  0.0000000  0.0000000 )
                  (  0.0000000 -1.0000000  0.0000000 )
                  (  0.0000000  0.0000000 -1.0000000 )


      isym =  3      90 deg rotation - cart. axis [-1,0,0]       

 cryst.   s( 3) = (     1          0          0      )
                  (     0          0         -1      )
                  (     0          1          0      )

 cart.    s( 3) = (  1.0000000  0.0000000  0.0000000 )
                  (  0.0000000  0.0000000  1.0000000 )
                  (  0.0000000 -1.0000000  0.0000000 )


      isym =  4      90 deg rotation - cart. axis [1,0,0]        

 cryst.   s( 4) = (     1          0          0      )
                  (     0          0          1      )
                  (     0         -1          0      )

 cart.    s( 4) = (  1.0000000  0.0000000  0.0000000 )
                  (  0.0000000  0.0000000 -1.0000000 )
                  (  0.0000000  1.0000000  0.0000000 )


      isym =  5     inv. 180 deg rotation - cart. axis [0,0,1]   

 cryst.   s( 5) = (     1          0          0      )
                  (     0          1          0      )
                  (     0          0         -1      )

 cart.    s( 5) = (  1.0000000  0.0000000  0.0000000 )
                  (  0.0000000  1.0000000  0.0000000 )
                  (  0.0000000  0.0000000 -1.0000000 )


      isym =  6     inv. 180 deg rotation - cart. axis [0,1,0]   

 cryst.   s( 6) = (     1          0          0      )
                  (     0         -1          0      )
                  (     0          0          1      )

 cart.    s( 6) = (  1.0000000  0.0000000  0.0000000 )
                  (  0.0000000 -1.0000000  0.0000000 )
                  (  0.0000000  0.0000000  1.0000000 )


      isym =  7     inv. 180 deg rotation - cart. axis [0,1,1]   

 cryst.   s( 7) = (     1          0          0      )
                  (     0          0         -1      )
                  (     0         -1          0      )

 cart.    s( 7) = (  1.0000000  0.0000000  0.0000000 )
                  (  0.0000000  0.0000000 -1.0000000 )
                  (  0.0000000 -1.0000000  0.0000000 )


      isym =  8     inv. 180 deg rotation - cart. axis [0,1,-1]  

 cryst.   s( 8) = (     1          0          0      )
                  (     0          0          1      )
                  (     0          1          0      )

 cart.    s( 8) = (  1.0000000  0.0000000  0.0000000 )
                  (  0.0000000  0.0000000  1.0000000 )
                  (  0.0000000  1.0000000  0.0000000 )


     point group C_4v (4mm) 
     there are  5 classes
     the character table:

       E     2C4   C2    2s_v  2s_d 
A_1    1.00  1.00  1.00  1.00  1.00
A_2    1.00  1.00  1.00 -1.00 -1.00
B_1    1.00 -1.00  1.00  1.00 -1.00
B_2    1.00 -1.00  1.00 -1.00  1.00
E      2.00  0.00 -2.00  0.00  0.00

     the symmetry operations in each class and the name of the first element:

     E        1
          identity                                               
     2C4      3    4
           90 deg rotation - cart. axis [-1,0,0]                 
     C2       2
          180 deg rotation - cart. axis [1,0,0]                  
     2s_v     5    6
          inv. 180 deg rotation - cart. axis [0,0,1]             
     2s_d     7    8
          inv. 180 deg rotation - cart. axis [0,1,1]             

   Cartesian axes

     site n.     atom                  positions (alat units)
         1           H   tau(   1) = (   0.0000000   0.0000000   0.0000000  )
         2           H   tau(   2) = (   0.0466132   0.0000000   0.0000000  )

   Crystallographic axes

     site n.     atom                  positions (cryst. coord.)
         1           H   tau(   1) = (  0.0000000  0.0000000  0.0000000  )
         2           H   tau(   2) = (  0.0466132  0.0000000  0.0000000  )

     number of k points=     1
                       cart. coord. in units 2pi/alat
        k(    1) = (  -0.5000000  -0.5000000  -0.5000000), wk =   2.0000000

                       cryst. coord.
        k(    1) = (  -0.5000000  -0.5000000  -0.5000000), wk =   2.0000000

     Dense  grid:   455863 G-vectors     FFT dimensions: (  96,  96,  96)

     Dynamical RAM for                 wfc:       1.74 MB

     Dynamical RAM for     wfc (w. buffer):       1.74 MB

     Dynamical RAM for           str. fact:       6.96 MB

     Dynamical RAM for           local pot:       0.00 MB

     Dynamical RAM for          nlocal pot:       1.74 MB

     Dynamical RAM for                qrad:       0.01 MB

     Dynamical RAM for          rho,v,vnew:      41.12 MB

     Dynamical RAM for               rhoin:      13.71 MB

     Dynamical RAM for            rho*nmix:     111.29 MB

     Dynamical RAM for           G-vectors:      29.56 MB

     Dynamical RAM for          h,s,v(r/c):       0.00 MB

     Dynamical RAM for          <psi|beta>:       0.00 MB

     Dynamical RAM for                 psi:       3.48 MB

     Dynamical RAM for                hpsi:       3.48 MB

     Dynamical RAM for                spsi:       3.48 MB

     Dynamical RAM for      wfcinit/wfcrot:       3.48 MB

     Dynamical RAM for           addusdens:      41.74 MB

     Dynamical RAM for          addusforce:      59.13 MB

     Estimated static dynamical RAM per process >     142.49 MB

     Estimated max dynamical RAM per process >     312.91 MB

     Initial potential from superposition of free atoms

     starting charge       2.0000, renormalised to       2.0000

     negative rho (up, down):  3.078E-02 0.000E+00
     Starting wfcs are    2 randomized atomic wfcs

     total cpu time spent up to now is        0.8 secs

     Self-consistent Calculation

     iteration #  1     ecut=    25.00 Ry     beta= 0.70
     Davidson diagonalization with overlap

---- Real-time Memory Report at c_bands before calling an iterative solver
           244 MiB given to the printing process from OS
             0 MiB allocation reported by mallinfo(arena+hblkhd)
           377 MiB available memory on the node where the printing process lives
------------------
     ethr =  1.00E-02,  avg # of iterations =  5.0

     negative rho (up, down):  4.328E-02 0.000E+00

     total cpu time spent up to now is        1.7 secs

     total energy              =      -2.30999265 Ry
     estimated scf accuracy    <       0.11961645 Ry

     iteration #  2     ecut=    25.00 Ry     beta= 0.70
     Davidson diagonalization with overlap

---- Real-time Memory Report at c_bands before calling an iterative solver
           307 MiB given to the printing process from OS
             0 MiB allocation reported by mallinfo(arena+hblkhd)
           252 MiB available memory on the node where the printing process lives
------------------
     ethr =  5.98E-03,  avg # of iterations =  1.0

     negative rho (up, down):  4.586E-02 0.000E+00

     total cpu time spent up to now is        2.4 secs

     total energy              =      -2.31690967 Ry
     estimated scf accuracy    <       0.00123606 Ry

     iteration #  3     ecut=    25.00 Ry     beta= 0.70
     Davidson diagonalization with overlap

---- Real-time Memory Report at c_bands before calling an iterative solver
           321 MiB given to the printing process from OS
             0 MiB allocation reported by mallinfo(arena+hblkhd)
           238 MiB available memory on the node where the printing process lives
------------------
     ethr =  6.18E-05,  avg # of iterations =  9.0

     negative rho (up, down):  4.566E-02 0.000E+00

     total cpu time spent up to now is        3.4 secs

     total energy              =      -2.31742802 Ry
     estimated scf accuracy    <       0.00001449 Ry

     iteration #  4     ecut=    25.00 Ry     beta= 0.70
     Davidson diagonalization with overlap

---- Real-time Memory Report at c_bands before calling an iterative solver
           335 MiB given to the printing process from OS
             0 MiB allocation reported by mallinfo(arena+hblkhd)
           224 MiB available memory on the node where the printing process lives
------------------
     ethr =  7.24E-07,  avg # of iterations =  5.0

     negative rho (up, down):  4.568E-02 0.000E+00

     total cpu time spent up to now is        4.3 secs

     total energy              =      -2.31741700 Ry
     estimated scf accuracy    <       0.00000034 Ry

     iteration #  5     ecut=    25.00 Ry     beta= 0.70
     Davidson diagonalization with overlap

---- Real-time Memory Report at c_bands before calling an iterative solver
           349 MiB given to the printing process from OS
             0 MiB allocation reported by mallinfo(arena+hblkhd)
           210 MiB available memory on the node where the printing process lives
------------------
     ethr =  1.69E-08,  avg # of iterations =  2.0

     negative rho (up, down):  4.568E-02 0.000E+00

     total cpu time spent up to now is        5.0 secs

     End of self-consistent calculation

          k =-0.5000-0.5000-0.5000 ( 57016 PWs)   bands (ev):

   -10.4350  -1.1183

     occupation numbers 
     1.0000   0.0000

     highest occupied, lowest unoccupied level (ev):   -10.4350   -1.1183

!    total energy              =      -2.31742193 Ry
     estimated scf accuracy    <          5.1E-09 Ry

     The total energy is the sum of the following terms:
     one-electron contribution =      -4.23260049 Ry
     hartree contribution      =       2.25292536 Ry
     xc contribution           =      -1.38995348 Ry
     ewald contribution        =       1.05220668 Ry

     convergence has been achieved in   5 iterations

     Forces acting on atoms (cartesian axes, Ry/au):

     atom    1 type  1   force =    -0.01105774    0.00000000    0.00000000
     atom    2 type  1   force =     0.01105774    0.00000000    0.00000000
     The non-local contrib.  to forces
     atom    1 type  1   force =     0.10911878    0.00000000    0.00000000
     atom    2 type  1   force =    -0.10695182    0.00000000    0.00000000
     The ionic contribution  to forces
     atom    1 type  1   force =    -1.02231174   -0.00000000   -0.00000000
     atom    2 type  1   force =     1.02231174   -0.00000000   -0.00000000
     The local contribution  to forces
     atom    1 type  1   force =     0.90330322    0.00000000    0.00000000
     atom    2 type  1   force =    -0.90310840    0.00000000    0.00000000
     The core correction contribution to forces
     atom    1 type  1   force =     0.00000000    0.00000000    0.00000000
     atom    2 type  1   force =     0.00000000    0.00000000    0.00000000
     The Hubbard contrib.    to forces
     atom    1 type  1   force =     0.00000000    0.00000000    0.00000000
     atom    2 type  1   force =     0.00000000    0.00000000    0.00000000
     The SCF correction term to forces
     atom    1 type  1   force =     0.00013187    0.00000000   -0.00000000
     atom    2 type  1   force =     0.00010611   -0.00000000    0.00000000

     Total force =     0.015638     Total SCF correction =     0.000169

     BFGS Geometry Optimization
     Energy error            =      0.0E+00 Ry
     Gradient error          =      1.1E-02 Ry/Bohr

     number of scf cycles    =   1
     number of bfgs steps    =   0

     energy             new  =      -2.3174219272 Ry

     new trust radius        =       0.0110577412 bohr
     new conv_thr            =       0.0000000100 Ry


ATOMIC_POSITIONS (angstrom)
H            -0.0058515047        0.0000000000        0.0000000000
H             0.7458515047        0.0000000000        0.0000000000



     Writing config-only to output data dir ./.save/
     NEW-OLD atomic charge density approx. for the potential

     negative rho (up, down):  4.567E-02 0.000E+00

     total cpu time spent up to now is        5.8 secs

     Self-consistent Calculation

     iteration #  1     ecut=    25.00 Ry     beta= 0.70
     Davidson diagonalization with overlap

---- Real-time Memory Report at c_bands before calling an iterative solver
           356 MiB given to the printing process from OS
             0 MiB allocation reported by mallinfo(arena+hblkhd)
           370 MiB available memory on the node where the printing process lives
------------------
     ethr =  1.00E-06,  avg # of iterations =  3.0

     negative rho (up, down):  4.517E-02 0.000E+00

     total cpu time spent up to now is        6.6 secs

     total energy              =      -2.31775154 Ry
     estimated scf accuracy    <       0.00003992 Ry

     iteration #  2     ecut=    25.00 Ry     beta= 0.70
     Davidson diagonalization with overlap

---- Real-time Memory Report at c_bands before calling an iterative solver
           356 MiB given to the printing process from OS
             0 MiB allocation reported by mallinfo(arena+hblkhd)
           245 MiB available memory on the node where the printing process lives
------------------
     ethr =  2.00E-06,  avg # of iterations =  2.0

     negative rho (up, down):  4.507E-02 0.000E+00

     total cpu time spent up to now is        7.3 secs

     total energy              =      -2.31782399 Ry
     estimated scf accuracy    <       0.00000053 Ry

     iteration #  3     ecut=    25.00 Ry     beta= 0.70
     Davidson diagonalization with overlap

---- Real-time Memory Report at c_bands before calling an iterative solver
           356 MiB given to the printing process from OS
             0 MiB allocation reported by mallinfo(arena+hblkhd)
           231 MiB available memory on the node where the printing process lives
------------------
     ethr =  2.64E-08,  avg # of iterations =  2.0

     negative rho (up, down):  4.506E-02 0.000E+00

     total cpu time spent up to now is        8.1 secs

     total energy              =      -2.31783784 Ry
     estimated scf accuracy    <       0.00000002 Ry

     iteration #  4     ecut=    25.00 Ry     beta= 0.70
     Davidson diagonalization with overlap

---- Real-time Memory Report at c_bands before calling an iterative solver
           356 MiB given to the printing process from OS
             0 MiB allocation reported by mallinfo(arena+hblkhd)
           218 MiB available memory on the node where the printing process lives
------------------
     ethr =  1.24E-09,  avg # of iterations =  2.0

     negative rho (up, down):  4.505E-02 0.000E+00

     total cpu time spent up to now is        8.8 secs

     End of self-consistent calculation

          k =-0.5000-0.5000-0.5000 ( 57016 PWs)   bands (ev):

   -10.3758  -1.1099

     occupation numbers 
     1.0000   0.0000

     highest occupied, lowest unoccupied level (ev):   -10.3758   -1.1099

!    total energy              =      -2.31783784 Ry
     estimated scf accuracy    <          1.3E-09 Ry

     The total energy is the sum of the following terms:
     one-electron contribution =      -4.20237645 Ry
     hartree contribution      =       2.23699617 Ry
     xc contribution           =      -1.38240754 Ry
     ewald contribution        =       1.02994998 Ry

     convergence has been achieved in   4 iterations

     Forces acting on atoms (cartesian axes, Ry/au):

     atom    1 type  1   force =     0.00809690    0.00000000    0.00000000
     atom    2 type  1   force =    -0.00809690    0.00000000    0.00000000
     The non-local contrib.  to forces
     atom    1 type  1   force =     0.10853943    0.00000000    0.00000000
     atom    2 type  1   force =    -0.10710571    0.00000000    0.00000000
     The ionic contribution  to forces
     atom    1 type  1   force =    -0.99070699   -0.00000000   -0.00000000
     atom    2 type  1   force =     0.99070699    0.00000000   -0.00000000
     The local contribution  to forces
     atom    1 type  1   force =     0.89112861    0.00000000    0.00000000
     atom    2 type  1   force =    -0.89086685    0.00000000    0.00000000
     The core correction contribution to forces
     atom    1 type  1   force =     0.00000000    0.00000000    0.00000000
     atom    2 type  1   force =     0.00000000    0.00000000    0.00000000
     The Hubbard contrib.    to forces
     atom    1 type  1   force =     0.00000000    0.00000000    0.00000000
     atom    2 type  1   force =     0.00000000    0.00000000    0.00000000
     The SCF correction term to forces
     atom    1 type  1   force =    -0.00000084    0.00000000   -0.00000000
     atom    2 type  1   force =     0.00003199    0.00000000   -0.00000000

     Total force =     0.011451     Total SCF correction =     0.000032
     Energy error            =      4.2E-04 Ry
     Gradient error          =      8.1E-03 Ry/Bohr

     number of scf cycles    =   2
     number of bfgs steps    =   1

     energy             old  =      -2.3174219272 Ry
     energy             new  =      -2.3178378363 Ry

     CASE: energy            _new < energy            _old

     new trust radius        =       0.0046742405 bohr
     new conv_thr            =       0.0000000004 Ry


ATOMIC_POSITIONS (angstrom)
H            -0.0033780031        0.0000000000        0.0000000000
H             0.7433780031        0.0000000000        0.0000000000



     Writing config-only to output data dir ./.save/
     NEW-OLD atomic charge density approx. for the potential

     negative rho (up, down):  4.506E-02 0.000E+00

     total cpu time spent up to now is        9.6 secs

     Self-consistent Calculation

     iteration #  1     ecut=    25.00 Ry     beta= 0.70
     Davidson diagonalization with overlap

---- Real-time Memory Report at c_bands before calling an iterative solver
           356 MiB given to the printing process from OS
             0 MiB allocation reported by mallinfo(arena+hblkhd)
           371 MiB available memory on the node where the printing process lives
------------------
     ethr =  1.00E-06,  avg # of iterations =  2.0

     negative rho (up, down):  4.527E-02 0.000E+00

     total cpu time spent up to now is       10.4 secs

     total energy              =      -2.31774123 Ry
     estimated scf accuracy    <       0.00000674 Ry

     iteration #  2     ecut=    25.00 Ry     beta= 0.70
     Davidson diagonalization with overlap

---- Real-time Memory Report at c_bands before calling an iterative solver
           356 MiB given to the printing process from OS
             0 MiB allocation reported by mallinfo(arena+hblkhd)
           246 MiB available memory on the node where the printing process lives
------------------
     ethr =  3.37E-07,  avg # of iterations =  1.0

     negative rho (up, down):  4.532E-02 0.000E+00

     total cpu time spent up to now is       11.1 secs

     total energy              =      -2.31771223 Ry
     estimated scf accuracy    <       0.00000014 Ry

     iteration #  3     ecut=    25.00 Ry     beta= 0.70
     Davidson diagonalization with overlap

---- Real-time Memory Report at c_bands before calling an iterative solver
           356 MiB given to the printing process from OS
             0 MiB allocation reported by mallinfo(arena+hblkhd)
           232 MiB available memory on the node where the printing process lives
------------------
     ethr =  7.21E-09,  avg # of iterations =  2.0

     negative rho (up, down):  4.533E-02 0.000E+00

     total cpu time spent up to now is       11.8 secs

     total energy              =      -2.31771094 Ry
     estimated scf accuracy    <          7.9E-09 Ry

     iteration #  4     ecut=    25.00 Ry     beta= 0.70
     Davidson diagonalization with overlap

---- Real-time Memory Report at c_bands before calling an iterative solver
           356 MiB given to the printing process from OS
             0 MiB allocation reported by mallinfo(arena+hblkhd)
           218 MiB available memory on the node where the printing process lives
------------------
     ethr =  3.97E-10,  avg # of iterations =  2.0

     negative rho (up, down):  4.533E-02 0.000E+00

     total cpu time spent up to now is       12.6 secs

     total energy              =      -2.31771142 Ry
     estimated scf accuracy    <          1.9E-09 Ry

     iteration #  5     ecut=    25.00 Ry     beta= 0.70
     Davidson diagonalization with overlap

---- Real-time Memory Report at c_bands before calling an iterative solver
           357 MiB given to the printing process from OS
             0 MiB allocation reported by mallinfo(arena+hblkhd)
           204 MiB available memory on the node where the printing process lives
------------------
     ethr =  9.64E-11,  avg # of iterations =  2.0

     negative rho (up, down):  4.533E-02 0.000E+00

     total cpu time spent up to now is       13.3 secs

     End of self-consistent calculation

          k =-0.5000-0.5000-0.5000 ( 57016 PWs)   bands (ev):

   -10.4005  -1.1130

     occupation numbers 
     1.0000   0.0000

     highest occupied, lowest unoccupied level (ev):   -10.4005   -1.1130

!    total energy              =      -2.31770877 Ry
     estimated scf accuracy    <          3.6E-11 Ry

     The total energy is the sum of the following terms:
     one-electron contribution =      -4.21511899 Ry
     hartree contribution      =       2.24373392 Ry
     xc contribution           =      -1.38559669 Ry
     ewald contribution        =       1.03927299 Ry

     convergence has been achieved in   5 iterations

     Forces acting on atoms (cartesian axes, Ry/au):

     atom    1 type  1   force =     0.00019704    0.00000000    0.00000000
     atom    2 type  1   force =    -0.00019704    0.00000000    0.00000000
     The non-local contrib.  to forces
     atom    1 type  1   force =     0.10881453    0.00000000    0.00000000
     atom    2 type  1   force =    -0.10708099    0.00000000    0.00000000
     The ionic contribution  to forces
     atom    1 type  1   force =    -1.00388551    0.00000000   -0.00000000
     atom    2 type  1   force =     1.00388551    0.00000000   -0.00000000
     The local contribution  to forces
     atom    1 type  1   force =     0.89626025    0.00000000    0.00000000
     atom    2 type  1   force =    -0.89605518    0.00000000    0.00000000
     The core correction contribution to forces
     atom    1 type  1   force =     0.00000000    0.00000000    0.00000000
     atom    2 type  1   force =     0.00000000    0.00000000    0.00000000
     The Hubbard contrib.    to forces
     atom    1 type  1   force =     0.00000000    0.00000000    0.00000000
     atom    2 type  1   force =     0.00000000    0.00000000    0.00000000
     The SCF correction term to forces
     atom    1 type  1   force =    -0.00000514   -0.00000000   -0.00000000
     atom    2 type  1   force =     0.00004070    0.00000000   -0.00000000

     Total force =     0.000279     Total SCF correction =     0.000041
     SCF correction compared to forces is large: reduce conv_thr to get better values
     Energy error            =      1.3E-04 Ry
     Gradient error          =      2.0E-04 Ry/Bohr

     number of scf cycles    =   3
     number of bfgs steps    =   2

     energy             old  =      -2.3178378363 Ry
     energy             new  =      -2.3177087679 Ry

     CASE: energy            _new > energy            _old

     new trust radius        =       0.0008639549 bohr
     new conv_thr            =       0.0000000004 Ry


ATOMIC_POSITIONS (angstrom)
H            -0.0053943194        0.0000000000        0.0000000000
H             0.7453943194        0.0000000000        0.0000000000



     Writing config-only to output data dir ./.save/
     NEW-OLD atomic charge density approx. for the potential

     negative rho (up, down):  4.532E-02 0.000E+00

     total cpu time spent up to now is       14.1 secs

     Self-consistent Calculation

     iteration #  1     ecut=    25.00 Ry     beta= 0.70
     Davidson diagonalization with overlap

---- Real-time Memory Report at c_bands before calling an iterative solver
           357 MiB given to the printing process from OS
             0 MiB allocation reported by mallinfo(arena+hblkhd)
           371 MiB available memory on the node where the printing process lives
------------------
     ethr =  1.00E-06,  avg # of iterations =  2.0

     negative rho (up, down):  4.516E-02 0.000E+00

     total cpu time spent up to now is       14.9 secs

     total energy              =      -2.31778506 Ry
     estimated scf accuracy    <       0.00000438 Ry

     iteration #  2     ecut=    25.00 Ry     beta= 0.70
     Davidson diagonalization with overlap

---- Real-time Memory Report at c_bands before calling an iterative solver
           357 MiB given to the printing process from OS
             0 MiB allocation reported by mallinfo(arena+hblkhd)
           246 MiB available memory on the node where the printing process lives
------------------
     ethr =  2.19E-07,  avg # of iterations =  1.0

     negative rho (up, down):  4.511E-02 0.000E+00

     total cpu time spent up to now is       15.6 secs

     total energy              =      -2.31781304 Ry
     estimated scf accuracy    <       0.00000011 Ry

     iteration #  3     ecut=    25.00 Ry     beta= 0.70
     Davidson diagonalization with overlap

---- Real-time Memory Report at c_bands before calling an iterative solver
           357 MiB given to the printing process from OS
             0 MiB allocation reported by mallinfo(arena+hblkhd)
           232 MiB available memory on the node where the printing process lives
------------------
     ethr =  5.44E-09,  avg # of iterations =  2.0

     negative rho (up, down):  4.511E-02 0.000E+00

     total cpu time spent up to now is       16.3 secs

     total energy              =      -2.31781441 Ry
     estimated scf accuracy    <          7.0E-09 Ry

     iteration #  4     ecut=    25.00 Ry     beta= 0.70
     Davidson diagonalization with overlap

---- Real-time Memory Report at c_bands before calling an iterative solver
           357 MiB given to the printing process from OS
             0 MiB allocation reported by mallinfo(arena+hblkhd)
           218 MiB available memory on the node where the printing process lives
------------------
     ethr =  3.48E-10,  avg # of iterations =  2.0

     negative rho (up, down):  4.511E-02 0.000E+00

     total cpu time spent up to now is       17.1 secs

     total energy              =      -2.31781692 Ry
     estimated scf accuracy    <          2.5E-09 Ry

     iteration #  5     ecut=    25.00 Ry     beta= 0.70
     Davidson diagonalization with overlap

---- Real-time Memory Report at c_bands before calling an iterative solver
           357 MiB given to the printing process from OS
             0 MiB allocation reported by mallinfo(arena+hblkhd)
           204 MiB available memory on the node where the printing process lives
------------------
     ethr =  1.23E-10,  avg # of iterations =  3.0

     negative rho (up, down):  4.511E-02 0.000E+00

     total cpu time spent up to now is       17.8 secs

     End of self-consistent calculation

          k =-0.5000-0.5000-0.5000 ( 57016 PWs)   bands (ev):

   -10.3805  -1.1106

     occupation numbers 
     1.0000   0.0000

     highest occupied, lowest unoccupied level (ev):   -10.3805   -1.1106

!    total energy              =      -2.31781600 Ry
     estimated scf accuracy    <          1.1E-11 Ry

     The total energy is the sum of the following terms:
     one-electron contribution =      -4.20474252 Ry
     hartree contribution      =       2.23827014 Ry
     xc contribution           =      -1.38300754 Ry
     ewald contribution        =       1.03166392 Ry

     convergence has been achieved in   5 iterations

     Forces acting on atoms (cartesian axes, Ry/au):

     atom    1 type  1   force =     0.00673951    0.00000000    0.00000000
     atom    2 type  1   force =    -0.00673951    0.00000000    0.00000000
     The non-local contrib.  to forces
     atom    1 type  1   force =     0.10864274    0.00000000    0.00000000
     atom    2 type  1   force =    -0.10714636    0.00000000    0.00000000
     The ionic contribution  to forces
     atom    1 type  1   force =    -0.99312321    0.00000000   -0.00000000
     atom    2 type  1   force =     0.99312321    0.00000000   -0.00000000
     The local contribution  to forces
     atom    1 type  1   force =     0.89208999    0.00000000    0.00000000
     atom    2 type  1   force =    -0.89184063    0.00000000    0.00000000
     The core correction contribution to forces
     atom    1 type  1   force =     0.00000000    0.00000000    0.00000000
     atom    2 type  1   force =     0.00000000    0.00000000    0.00000000
     The Hubbard contrib.    to forces
     atom    1 type  1   force =     0.00000000    0.00000000    0.00000000
     atom    2 type  1   force =     0.00000000    0.00000000    0.00000000
     The SCF correction term to forces
     atom    1 type  1   force =     0.00000312   -0.00000000   -0.00000000
     atom    2 type  1   force =    -0.00000262   -0.00000000   -0.00000000

     Total force =     0.009531     Total SCF correction =     0.000004
     Energy error            =      2.2E-05 Ry
     Gradient error          =      6.7E-03 Ry/Bohr

     number of scf cycles    =   4
     number of bfgs steps    =   2

     energy             old  =      -2.3178378363 Ry
     energy             new  =      -2.3178160021 Ry

     CASE: energy            _new > energy            _old

     new trust radius        =       0.0001686999 bohr
     new conv_thr            =       0.0000000004 Ry


ATOMIC_POSITIONS (angstrom)
H            -0.0057622325        0.0000000000        0.0000000000
H             0.7457622325        0.0000000000        0.0000000000



     Writing config-only to output data dir ./.save/
     NEW-OLD atomic charge density approx. for the potential

     negative rho (up, down):  4.511E-02 0.000E+00

     total cpu time spent up to now is       18.6 secs

     Self-consistent Calculation

     iteration #  1     ecut=    25.00 Ry     beta= 0.70
     Davidson diagonalization with overlap

---- Real-time Memory Report at c_bands before calling an iterative solver
           357 MiB given to the printing process from OS
             0 MiB allocation reported by mallinfo(arena+hblkhd)
           371 MiB available memory on the node where the printing process lives
------------------
     ethr =  1.00E-06,  avg # of iterations =  2.0

     Threshold (ethr) on eigenvalues was too large:
     Diagonalizing with lowered threshold

     Davidson diagonalization with overlap

---- Real-time Memory Report at c_bands before calling an iterative solver
           357 MiB given to the printing process from OS
             0 MiB allocation reported by mallinfo(arena+hblkhd)
           372 MiB available memory on the node where the printing process lives
------------------
     ethr =  7.68E-09,  avg # of iterations =  1.0

     negative rho (up, down):  4.507E-02 0.000E+00

     total cpu time spent up to now is       19.6 secs

     total energy              =      -2.31783000 Ry
     estimated scf accuracy    <       0.00000017 Ry

     iteration #  2     ecut=    25.00 Ry     beta= 0.70
     Davidson diagonalization with overlap

---- Real-time Memory Report at c_bands before calling an iterative solver
           357 MiB given to the printing process from OS
             0 MiB allocation reported by mallinfo(arena+hblkhd)
           246 MiB available memory on the node where the printing process lives
------------------
     ethr =  8.42E-09,  avg # of iterations =  2.0

     negative rho (up, down):  4.507E-02 0.000E+00

     total cpu time spent up to now is       20.4 secs

     total energy              =      -2.31783360 Ry
     estimated scf accuracy    <          1.9E-09 Ry

     iteration #  3     ecut=    25.00 Ry     beta= 0.70
     Davidson diagonalization with overlap

---- Real-time Memory Report at c_bands before calling an iterative solver
           357 MiB given to the printing process from OS
             0 MiB allocation reported by mallinfo(arena+hblkhd)
           232 MiB available memory on the node where the printing process lives
------------------
     ethr =  9.35E-11,  avg # of iterations =  2.0

     negative rho (up, down):  4.506E-02 0.000E+00

     total cpu time spent up to now is       21.1 secs

     End of self-consistent calculation

          k =-0.5000-0.5000-0.5000 ( 57016 PWs)   bands (ev):

   -10.3771  -1.1103

     occupation numbers 
     1.0000   0.0000

     highest occupied, lowest unoccupied level (ev):   -10.3771   -1.1103

!    total energy              =      -2.31783367 Ry
     estimated scf accuracy    <          1.3E-10 Ry

     The total energy is the sum of the following terms:
     one-electron contribution =      -4.20284212 Ry
     hartree contribution      =       2.23725377 Ry
     xc contribution           =      -1.38252964 Ry
     ewald contribution        =       1.03028433 Ry

     convergence has been achieved in   3 iterations

     Forces acting on atoms (cartesian axes, Ry/au):

     atom    1 type  1   force =     0.00784374    0.00000000    0.00000000
     atom    2 type  1   force =    -0.00784374    0.00000000    0.00000000
     The non-local contrib.  to forces
     atom    1 type  1   force =     0.10857877    0.00000000    0.00000000
     atom    2 type  1   force =    -0.10711975    0.00000000    0.00000000
     The ionic contribution  to forces
     atom    1 type  1   force =    -0.99117810    0.00000000   -0.00000000
     atom    2 type  1   force =     0.99117810   -0.00000000   -0.00000000
     The local contribution  to forces
     atom    1 type  1   force =     0.89132651    0.00000000    0.00000000
     atom    2 type  1   force =    -0.89106433    0.00000000    0.00000000
     The core correction contribution to forces
     atom    1 type  1   force =     0.00000000    0.00000000    0.00000000
     atom    2 type  1   force =     0.00000000    0.00000000    0.00000000
     The Hubbard contrib.    to forces
     atom    1 type  1   force =     0.00000000    0.00000000    0.00000000
     atom    2 type  1   force =     0.00000000    0.00000000    0.00000000
     The SCF correction term to forces
     atom    1 type  1   force =    -0.00000380   -0.00000000   -0.00000000
     atom    2 type  1   force =     0.00004189    0.00000000   -0.00000000

     Total force =     0.011093     Total SCF correction =     0.000042
     Energy error            =      4.2E-06 Ry
     Gradient error          =      7.8E-03 Ry/Bohr

     number of scf cycles    =   5
     number of bfgs steps    =   2

     energy             old  =      -2.3178378363 Ry
     energy             new  =      -2.3178336710 Ry

     CASE: energy            _new > energy            _old

     new trust radius        =       0.0000334097 bohr

     trust_radius < trust_radius_min

     resetting bfgs history

     new conv_thr            =       0.0000000004 Ry


ATOMIC_POSITIONS (angstrom)
H            -0.0015668117        0.0000000000        0.0000000000
H             0.7415668117        0.0000000000        0.0000000000



     Writing config-only to output data dir ./.save/
     NEW-OLD atomic charge density approx. for the potential

     negative rho (up, down):  4.506E-02 0.000E+00

     total cpu time spent up to now is       21.9 secs

     Self-consistent Calculation

     iteration #  1     ecut=    25.00 Ry     beta= 0.70
     Davidson diagonalization with overlap

---- Real-time Memory Report at c_bands before calling an iterative solver
           357 MiB given to the printing process from OS
             0 MiB allocation reported by mallinfo(arena+hblkhd)
           371 MiB available memory on the node where the printing process lives
------------------
     ethr =  1.00E-06,  avg # of iterations =  3.0

     negative rho (up, down):  4.543E-02 0.000E+00

     total cpu time spent up to now is       22.7 secs

     total energy              =      -2.31762560 Ry
     estimated scf accuracy    <       0.00002021 Ry

     iteration #  2     ecut=    25.00 Ry     beta= 0.70
     Davidson diagonalization with overlap

---- Real-time Memory Report at c_bands before calling an iterative solver
           357 MiB given to the printing process from OS
             0 MiB allocation reported by mallinfo(arena+hblkhd)
           246 MiB available memory on the node where the printing process lives
------------------
     ethr =  1.01E-06,  avg # of iterations =  1.0

     negative rho (up, down):  4.551E-02 0.000E+00

     total cpu time spent up to now is       23.4 secs

     total energy              =      -2.31758060 Ry
     estimated scf accuracy    <       0.00000033 Ry

     iteration #  3     ecut=    25.00 Ry     beta= 0.70
     Davidson diagonalization with overlap

---- Real-time Memory Report at c_bands before calling an iterative solver
           357 MiB given to the printing process from OS
             0 MiB allocation reported by mallinfo(arena+hblkhd)
           232 MiB available memory on the node where the printing process lives
------------------
     ethr =  1.66E-08,  avg # of iterations =  2.0

     negative rho (up, down):  4.553E-02 0.000E+00

     total cpu time spent up to now is       24.2 secs

     total energy              =      -2.31756529 Ry
     estimated scf accuracy    <       0.00000001 Ry

     iteration #  4     ecut=    25.00 Ry     beta= 0.70
     Davidson diagonalization with overlap

---- Real-time Memory Report at c_bands before calling an iterative solver
           357 MiB given to the printing process from OS
             0 MiB allocation reported by mallinfo(arena+hblkhd)
           218 MiB available memory on the node where the printing process lives
------------------
     ethr =  7.43E-10,  avg # of iterations =  3.0

     negative rho (up, down):  4.552E-02 0.000E+00

     total cpu time spent up to now is       25.0 secs

     total energy              =      -2.31756491 Ry
     estimated scf accuracy    <          6.2E-10 Ry

     iteration #  5     ecut=    25.00 Ry     beta= 0.70
     Davidson diagonalization with overlap

---- Real-time Memory Report at c_bands before calling an iterative solver
           357 MiB given to the printing process from OS
             0 MiB allocation reported by mallinfo(arena+hblkhd)
           204 MiB available memory on the node where the printing process lives
------------------
     ethr =  3.08E-11,  avg # of iterations =  3.0

     negative rho (up, down):  4.552E-02 0.000E+00

     total cpu time spent up to now is       25.7 secs

     End of self-consistent calculation

          k =-0.5000-0.5000-0.5000 ( 57016 PWs)   bands (ev):

   -10.4186  -1.1173

     occupation numbers 
     1.0000   0.0000

     highest occupied, lowest unoccupied level (ev):   -10.4186   -1.1173

!    total energy              =      -2.31757370 Ry
     estimated scf accuracy    <          1.4E-10 Ry

     The total energy is the sum of the following terms:
     one-electron contribution =      -4.22447200 Ry
     hartree contribution      =       2.24864624 Ry
     xc contribution           =      -1.38792635 Ry
     ewald contribution        =       1.04617841 Ry

     convergence has been achieved in   5 iterations

     Forces acting on atoms (cartesian axes, Ry/au):

     atom    1 type  1   force =    -0.00572534    0.00000000    0.00000000
     atom    2 type  1   force =     0.00572534    0.00000000    0.00000000
     The non-local contrib.  to forces
     atom    1 type  1   force =     0.10906415    0.00000000    0.00000000
     atom    2 type  1   force =    -0.10697264    0.00000000    0.00000000
     The ionic contribution  to forces
     atom    1 type  1   force =    -1.01370266   -0.00000000   -0.00000000
     atom    2 type  1   force =     1.01370266   -0.00000000   -0.00000000
     The local contribution  to forces
     atom    1 type  1   force =     0.90002788    0.00000000    0.00000000
     atom    2 type  1   force =    -0.89981497    0.00000000    0.00000000
     The core correction contribution to forces
     atom    1 type  1   force =     0.00000000    0.00000000    0.00000000
     atom    2 type  1   force =     0.00000000    0.00000000    0.00000000
     The Hubbard contrib.    to forces
     atom    1 type  1   force =     0.00000000    0.00000000    0.00000000
     atom    2 type  1   force =     0.00000000    0.00000000    0.00000000
     The SCF correction term to forces
     atom    1 type  1   force =     0.00008608   -0.00000000    0.00000000
     atom    2 type  1   force =     0.00001107   -0.00000000    0.00000000

     Total force =     0.008097     Total SCF correction =     0.000087
     Energy error            =      2.6E-04 Ry
     Gradient error          =      5.7E-03 Ry/Bohr

     number of scf cycles    =   6
     number of bfgs steps    =   2

     energy             old  =      -2.3178378363 Ry
     energy             new  =      -2.3175736980 Ry

     CASE: energy            _new > energy            _old

     new trust radius        =       0.0013429976 bohr
     new conv_thr            =       0.0000000004 Ry


ATOMIC_POSITIONS (angstrom)
H            -0.0051408209        0.0000000000        0.0000000000
H             0.7451408209        0.0000000000        0.0000000000



     Writing config-only to output data dir ./.save/
     NEW-OLD atomic charge density approx. for the potential

     negative rho (up, down):  4.551E-02 0.000E+00

     total cpu time spent up to now is       26.5 secs

     Self-consistent Calculation

     iteration #  1     ecut=    25.00 Ry     beta= 0.70
     Davidson diagonalization with overlap

---- Real-time Memory Report at c_bands before calling an iterative solver
           357 MiB given to the printing process from OS
             0 MiB allocation reported by mallinfo(arena+hblkhd)
           371 MiB available memory on the node where the printing process lives
------------------
     ethr =  1.00E-06,  avg # of iterations =  2.0

     negative rho (up, down):  4.522E-02 0.000E+00

     total cpu time spent up to now is       27.3 secs

     total energy              =      -2.31774314 Ry
     estimated scf accuracy    <       0.00001386 Ry

     iteration #  2     ecut=    25.00 Ry     beta= 0.70
     Davidson diagonalization with overlap

---- Real-time Memory Report at c_bands before calling an iterative solver
           357 MiB given to the printing process from OS
             0 MiB allocation reported by mallinfo(arena+hblkhd)
           246 MiB available memory on the node where the printing process lives
------------------
     ethr =  6.93E-07,  avg # of iterations =  1.0

     negative rho (up, down):  4.514E-02 0.000E+00

     total cpu time spent up to now is       28.0 secs

     total energy              =      -2.31779501 Ry
     estimated scf accuracy    <       0.00000030 Ry

     iteration #  3     ecut=    25.00 Ry     beta= 0.70
     Davidson diagonalization with overlap

---- Real-time Memory Report at c_bands before calling an iterative solver
           357 MiB given to the printing process from OS
             0 MiB allocation reported by mallinfo(arena+hblkhd)
           232 MiB available memory on the node where the printing process lives
------------------
     ethr =  1.51E-08,  avg # of iterations =  2.0

     negative rho (up, down):  4.514E-02 0.000E+00

     total cpu time spent up to now is       28.7 secs

     total energy              =      -2.31779810 Ry
     estimated scf accuracy    <       0.00000001 Ry

     iteration #  4     ecut=    25.00 Ry     beta= 0.70
     Davidson diagonalization with overlap

---- Real-time Memory Report at c_bands before calling an iterative solver
           357 MiB given to the printing process from OS
             0 MiB allocation reported by mallinfo(arena+hblkhd)
           218 MiB available memory on the node where the printing process lives
------------------
     ethr =  6.48E-10,  avg # of iterations =  2.0

     negative rho (up, down):  4.514E-02 0.000E+00

     total cpu time spent up to now is       29.5 secs

     total energy              =      -2.31780194 Ry
     estimated scf accuracy    <          2.0E-09 Ry

     iteration #  5     ecut=    25.00 Ry     beta= 0.70
     Davidson diagonalization with overlap

---- Real-time Memory Report at c_bands before calling an iterative solver
           357 MiB given to the printing process from OS
             0 MiB allocation reported by mallinfo(arena+hblkhd)
           204 MiB available memory on the node where the printing process lives
------------------
     ethr =  1.02E-10,  avg # of iterations =  3.0

     negative rho (up, down):  4.514E-02 0.000E+00

     total cpu time spent up to now is       30.2 secs

     End of self-consistent calculation

          k =-0.5000-0.5000-0.5000 ( 57016 PWs)   bands (ev):

   -10.3830  -1.1122

     occupation numbers 
     1.0000   0.0000

     highest occupied, lowest unoccupied level (ev):   -10.3830   -1.1122

!    total energy              =      -2.31780093 Ry
     estimated scf accuracy    <          2.5E-11 Ry

     The total energy is the sum of the following terms:
     one-electron contribution =      -4.20605141 Ry
     hartree contribution      =       2.23896887 Ry
     xc contribution           =      -1.38333446 Ry
     ewald contribution        =       1.03261606 Ry

     convergence has been achieved in   5 iterations

     Forces acting on atoms (cartesian axes, Ry/au):

     atom    1 type  1   force =     0.00592190    0.00000000    0.00000000
     atom    2 type  1   force =    -0.00592190    0.00000000    0.00000000
     The non-local contrib.  to forces
     atom    1 type  1   force =     0.10869062    0.00000000    0.00000000
     atom    2 type  1   force =    -0.10711329    0.00000000    0.00000000
     The ionic contribution  to forces
     atom    1 type  1   force =    -0.99446676   -0.00000000   -0.00000000
     atom    2 type  1   force =     0.99446676    0.00000000   -0.00000000
     The local contribution  to forces
     atom    1 type  1   force =     0.89261504    0.00000000    0.00000000
     atom    2 type  1   force =    -0.89237724    0.00000000    0.00000000
     The core correction contribution to forces
     atom    1 type  1   force =     0.00000000    0.00000000    0.00000000
     atom    2 type  1   force =     0.00000000    0.00000000    0.00000000
     The Hubbard contrib.    to forces
     atom    1 type  1   force =     0.00000000    0.00000000    0.00000000
     atom    2 type  1   force =     0.00000000    0.00000000    0.00000000
     The SCF correction term to forces
     atom    1 type  1   force =    -0.00000303    0.00000000    0.00000000
     atom    2 type  1   force =     0.00001585    0.00000000   -0.00000000

     Total force =     0.008375     Total SCF correction =     0.000016
     Energy error            =      3.7E-05 Ry
     Gradient error          =      5.9E-03 Ry/Bohr

     number of scf cycles    =   7
     number of bfgs steps    =   2

     energy             old  =      -2.3178378363 Ry
     energy             new  =      -2.3178009317 Ry

     CASE: energy            _new > energy            _old

     new trust radius        =       0.0002489887 bohr
     new conv_thr            =       0.0000000004 Ry


ATOMIC_POSITIONS (angstrom)
H            -0.0057197455        0.0000000000        0.0000000000
H             0.7457197455        0.0000000000        0.0000000000



     Writing config-only to output data dir ./.save/
     NEW-OLD atomic charge density approx. for the potential

     negative rho (up, down):  4.513E-02 0.000E+00

     total cpu time spent up to now is       31.0 secs

     Self-consistent Calculation

     iteration #  1     ecut=    25.00 Ry     beta= 0.70
     Davidson diagonalization with overlap

---- Real-time Memory Report at c_bands before calling an iterative solver
           357 MiB given to the printing process from OS
             0 MiB allocation reported by mallinfo(arena+hblkhd)
           371 MiB available memory on the node where the printing process lives
------------------
     ethr =  1.00E-06,  avg # of iterations =  2.0

     Threshold (ethr) on eigenvalues was too large:
     Diagonalizing with lowered threshold

     Davidson diagonalization with overlap

---- Real-time Memory Report at c_bands before calling an iterative solver
           357 MiB given to the printing process from OS
             0 MiB allocation reported by mallinfo(arena+hblkhd)
           372 MiB available memory on the node where the printing process lives
------------------
     ethr =  1.83E-08,  avg # of iterations =  1.0

     negative rho (up, down):  4.508E-02 0.000E+00

     total cpu time spent up to now is       32.0 secs

     total energy              =      -2.31782438 Ry
     estimated scf accuracy    <       0.00000039 Ry

     iteration #  2     ecut=    25.00 Ry     beta= 0.70
     Davidson diagonalization with overlap

---- Real-time Memory Report at c_bands before calling an iterative solver
           357 MiB given to the printing process from OS
             0 MiB allocation reported by mallinfo(arena+hblkhd)
           246 MiB available memory on the node where the printing process lives
------------------
     ethr =  1.93E-08,  avg # of iterations =  2.0

     negative rho (up, down):  4.507E-02 0.000E+00

     total cpu time spent up to now is       32.8 secs

     total energy              =      -2.31782915 Ry
     estimated scf accuracy    <          6.2E-09 Ry

     iteration #  3     ecut=    25.00 Ry     beta= 0.70
     Davidson diagonalization with overlap

---- Real-time Memory Report at c_bands before calling an iterative solver
           357 MiB given to the printing process from OS
             0 MiB allocation reported by mallinfo(arena+hblkhd)
           232 MiB available memory on the node where the printing process lives
------------------
     ethr =  3.09E-10,  avg # of iterations =  2.0

     negative rho (up, down):  4.507E-02 0.000E+00

     total cpu time spent up to now is       33.5 secs

     End of self-consistent calculation

          k =-0.5000-0.5000-0.5000 ( 57016 PWs)   bands (ev):

   -10.3775  -1.1111

     occupation numbers 
     1.0000   0.0000

     highest occupied, lowest unoccupied level (ev):   -10.3775   -1.1111

!    total energy              =      -2.31783206 Ry
     estimated scf accuracy    <          1.4E-10 Ry

     The total energy is the sum of the following terms:
     one-electron contribution =      -4.20305664 Ry
     hartree contribution      =       2.23736239 Ry
     xc contribution           =      -1.38258132 Ry
     ewald contribution        =       1.03044351 Ry

     convergence has been achieved in   3 iterations

     Forces acting on atoms (cartesian axes, Ry/au):

     atom    1 type  1   force =     0.00775669    0.00000000    0.00000000
     atom    2 type  1   force =    -0.00775669    0.00000000    0.00000000
     The non-local contrib.  to forces
     atom    1 type  1   force =     0.10860303    0.00000000    0.00000000
     atom    2 type  1   force =    -0.10713065    0.00000000    0.00000000
     The ionic contribution  to forces
     atom    1 type  1   force =    -0.99140243    0.00000000   -0.00000000
     atom    2 type  1   force =     0.99140243   -0.00000000   -0.00000000
     The local contribution  to forces
     atom    1 type  1   force =     0.89141344    0.00000000    0.00000000
     atom    2 type  1   force =    -0.89114768    0.00000000    0.00000000
     The core correction contribution to forces
     atom    1 type  1   force =     0.00000000    0.00000000    0.00000000
     atom    2 type  1   force =     0.00000000    0.00000000    0.00000000
     The Hubbard contrib.    to forces
     atom    1 type  1   force =     0.00000000    0.00000000    0.00000000
     atom    2 type  1   force =     0.00000000    0.00000000    0.00000000
     The SCF correction term to forces
     atom    1 type  1   force =    -0.00000578   -0.00000000   -0.00000000
     atom    2 type  1   force =    -0.00002924   -0.00000000    0.00000000

     Total force =     0.010970     Total SCF correction =     0.000030
     Energy error            =      5.8E-06 Ry
     Gradient error          =      7.8E-03 Ry/Bohr

     number of scf cycles    =   8
     number of bfgs steps    =   2

     energy             old  =      -2.3178378363 Ry
     energy             new  =      -2.3178320583 Ry

     CASE: energy            _new > energy            _old

     new trust radius        =       0.0000511689 bohr

     trust_radius < trust_radius_min

     resetting bfgs history

     new conv_thr            =       0.0000000004 Ry


ATOMIC_POSITIONS (angstrom)
H            -0.0015668117        0.0000000000        0.0000000000
H             0.7415668117        0.0000000000        0.0000000000



     Writing config-only to output data dir ./.save/
     NEW-OLD atomic charge density approx. for the potential

     negative rho (up, down):  4.506E-02 0.000E+00

     total cpu time spent up to now is       34.3 secs

     Self-consistent Calculation

     iteration #  1     ecut=    25.00 Ry     beta= 0.70
     Davidson diagonalization with overlap

---- Real-time Memory Report at c_bands before calling an iterative solver
           357 MiB given to the printing process from OS
             0 MiB allocation reported by mallinfo(arena+hblkhd)
           371 MiB available memory on the node where the printing process lives
------------------
     ethr =  1.00E-06,  avg # of iterations =  3.0

     negative rho (up, down):  4.543E-02 0.000E+00

     total cpu time spent up to now is       35.1 secs

     total energy              =      -2.31762386 Ry
     estimated scf accuracy    <       0.00001982 Ry

     iteration #  2     ecut=    25.00 Ry     beta= 0.70
     Davidson diagonalization with overlap

---- Real-time Memory Report at c_bands before calling an iterative solver
           357 MiB given to the printing process from OS
             0 MiB allocation reported by mallinfo(arena+hblkhd)
           246 MiB available memory on the node where the printing process lives
------------------
     ethr =  9.91E-07,  avg # of iterations =  1.0

     negative rho (up, down):  4.551E-02 0.000E+00

     total cpu time spent up to now is       35.8 secs

     total energy              =      -2.31758001 Ry
     estimated scf accuracy    <       0.00000034 Ry

     iteration #  3     ecut=    25.00 Ry     beta= 0.70
     Davidson diagonalization with overlap

---- Real-time Memory Report at c_bands before calling an iterative solver
           357 MiB given to the printing process from OS
             0 MiB allocation reported by mallinfo(arena+hblkhd)
           232 MiB available memory on the node where the printing process lives
------------------
     ethr =  1.68E-08,  avg # of iterations =  2.0

     negative rho (up, down):  4.552E-02 0.000E+00

     total cpu time spent up to now is       36.6 secs

     total energy              =      -2.31756554 Ry
     estimated scf accuracy    <       0.00000002 Ry

     iteration #  4     ecut=    25.00 Ry     beta= 0.70
     Davidson diagonalization with overlap

---- Real-time Memory Report at c_bands before calling an iterative solver
           357 MiB given to the printing process from OS
             0 MiB allocation reported by mallinfo(arena+hblkhd)
           218 MiB available memory on the node where the printing process lives
------------------
     ethr =  8.70E-10,  avg # of iterations =  3.0

     negative rho (up, down):  4.552E-02 0.000E+00

     total cpu time spent up to now is       37.4 secs

     total energy              =      -2.31756489 Ry
     estimated scf accuracy    <          8.3E-10 Ry

     iteration #  5     ecut=    25.00 Ry     beta= 0.70
     Davidson diagonalization with overlap

---- Real-time Memory Report at c_bands before calling an iterative solver
           357 MiB given to the printing process from OS
             0 MiB allocation reported by mallinfo(arena+hblkhd)
           204 MiB available memory on the node where the printing process lives
------------------
     ethr =  4.14E-11,  avg # of iterations =  2.0

     negative rho (up, down):  4.552E-02 0.000E+00

     total cpu time spent up to now is       38.1 secs

     End of self-consistent calculation

          k =-0.5000-0.5000-0.5000 ( 57016 PWs)   bands (ev):

   -10.4186  -1.1177

     occupation numbers 
     1.0000   0.0000

     highest occupied, lowest unoccupied level (ev):   -10.4186   -1.1177

!    total energy              =      -2.31757368 Ry
     estimated scf accuracy    <          1.6E-10 Ry

     The total energy is the sum of the following terms:
     one-electron contribution =      -4.22447262 Ry
     hartree contribution      =       2.24864758 Ry
     xc contribution           =      -1.38792705 Ry
     ewald contribution        =       1.04617841 Ry

     convergence has been achieved in   5 iterations

     Forces acting on atoms (cartesian axes, Ry/au):

     atom    1 type  1   force =    -0.00572456    0.00000000    0.00000000
     atom    2 type  1   force =     0.00572456    0.00000000    0.00000000
     The non-local contrib.  to forces
     atom    1 type  1   force =     0.10906422    0.00000000    0.00000000
     atom    2 type  1   force =    -0.10697260    0.00000000    0.00000000
     The ionic contribution  to forces
     atom    1 type  1   force =    -1.01370266   -0.00000000   -0.00000000
     atom    2 type  1   force =     1.01370266   -0.00000000   -0.00000000
     The local contribution  to forces
     atom    1 type  1   force =     0.90002884    0.00000000    0.00000000
     atom    2 type  1   force =    -0.89981623    0.00000000    0.00000000
     The core correction contribution to forces
     atom    1 type  1   force =     0.00000000    0.00000000    0.00000000
     atom    2 type  1   force =     0.00000000    0.00000000    0.00000000
     The Hubbard contrib.    to forces
     atom    1 type  1   force =     0.00000000    0.00000000    0.00000000
     atom    2 type  1   force =     0.00000000    0.00000000    0.00000000
     The SCF correction term to forces
     atom    1 type  1   force =     0.00008578   -0.00000000    0.00000000
     atom    2 type  1   force =     0.00001148    0.00000000   -0.00000000

     Total force =     0.008096     Total SCF correction =     0.000087
     Energy error            =      2.6E-04 Ry
     Gradient error          =      5.7E-03 Ry/Bohr

     number of scf cycles    =   9
     number of bfgs steps    =   2

     energy             old  =      -2.3178378363 Ry
     energy             new  =      -2.3175736767 Ry

     CASE: energy            _new > energy            _old

     new trust radius        =       0.0013429252 bohr
     new conv_thr            =       0.0000000004 Ry


ATOMIC_POSITIONS (angstrom)
H            -0.0051408592        0.0000000000        0.0000000000
H             0.7451408592        0.0000000000        0.0000000000



     Writing config-only to output data dir ./.save/
     NEW-OLD atomic charge density approx. for the potential

     negative rho (up, down):  4.551E-02 0.000E+00

     total cpu time spent up to now is       38.9 secs

     Self-consistent Calculation

     iteration #  1     ecut=    25.00 Ry     beta= 0.70
     Davidson diagonalization with overlap

---- Real-time Memory Report at c_bands before calling an iterative solver
           357 MiB given to the printing process from OS
             0 MiB allocation reported by mallinfo(arena+hblkhd)
           371 MiB available memory on the node where the printing process lives
------------------
     ethr =  1.00E-06,  avg # of iterations =  2.0

     negative rho (up, down):  4.522E-02 0.000E+00

     total cpu time spent up to now is       39.7 secs

     total energy              =      -2.31774314 Ry
     estimated scf accuracy    <       0.00001387 Ry

     iteration #  2     ecut=    25.00 Ry     beta= 0.70
     Davidson diagonalization with overlap

---- Real-time Memory Report at c_bands before calling an iterative solver
           357 MiB given to the printing process from OS
             0 MiB allocation reported by mallinfo(arena+hblkhd)
           246 MiB available memory on the node where the printing process lives
------------------
     ethr =  6.94E-07,  avg # of iterations =  1.0

     negative rho (up, down):  4.514E-02 0.000E+00

     total cpu time spent up to now is       40.4 secs

     total energy              =      -2.31779499 Ry
     estimated scf accuracy    <       0.00000030 Ry

     iteration #  3     ecut=    25.00 Ry     beta= 0.70
     Davidson diagonalization with overlap

---- Real-time Memory Report at c_bands before calling an iterative solver
           357 MiB given to the printing process from OS
             0 MiB allocation reported by mallinfo(arena+hblkhd)
           231 MiB available memory on the node where the printing process lives
------------------
     ethr =  1.50E-08,  avg # of iterations =  2.0

     negative rho (up, down):  4.514E-02 0.000E+00

     total cpu time spent up to now is       41.2 secs

     total energy              =      -2.31779811 Ry
     estimated scf accuracy    <       0.00000001 Ry

     iteration #  4     ecut=    25.00 Ry     beta= 0.70
     Davidson diagonalization with overlap

---- Real-time Memory Report at c_bands before calling an iterative solver
           357 MiB given to the printing process from OS
             0 MiB allocation reported by mallinfo(arena+hblkhd)
           217 MiB available memory on the node where the printing process lives
------------------
     ethr =  6.44E-10,  avg # of iterations =  2.0

     negative rho (up, down):  4.514E-02 0.000E+00

     total cpu time spent up to now is       41.9 secs

     total energy              =      -2.31780195 Ry
     estimated scf accuracy    <          2.0E-09 Ry

     iteration #  5     ecut=    25.00 Ry     beta= 0.70
     Davidson diagonalization with overlap

---- Real-time Memory Report at c_bands before calling an iterative solver
           357 MiB given to the printing process from OS
             0 MiB allocation reported by mallinfo(arena+hblkhd)
           203 MiB available memory on the node where the printing process lives
------------------
     ethr =  9.93E-11,  avg # of iterations =  3.0

     negative rho (up, down):  4.514E-02 0.000E+00

     total cpu time spent up to now is       42.6 secs

     End of self-consistent calculation

          k =-0.5000-0.5000-0.5000 ( 57016 PWs)   bands (ev):

   -10.3830  -1.1127

     occupation numbers 
     1.0000   0.0000

     highest occupied, lowest unoccupied level (ev):   -10.3830   -1.1127

!    total energy              =      -2.31780093 Ry
     estimated scf accuracy    <          2.8E-11 Ry

     The total energy is the sum of the following terms:
     one-electron contribution =      -4.20605130 Ry
     hartree contribution      =       2.23896895 Ry
     xc contribution           =      -1.38333450 Ry
     ewald contribution        =       1.03261592 Ry

     convergence has been achieved in   5 iterations

     Forces acting on atoms (cartesian axes, Ry/au):

     atom    1 type  1   force =     0.00592209    0.00000000    0.00000000
     atom    2 type  1   force =    -0.00592209    0.00000000    0.00000000
     The non-local contrib.  to forces
     atom    1 type  1   force =     0.10869063    0.00000000    0.00000000
     atom    2 type  1   force =    -0.10711330    0.00000000    0.00000000
     The ionic contribution  to forces
     atom    1 type  1   force =    -0.99446655    0.00000000   -0.00000000
     atom    2 type  1   force =     0.99446655   -0.00000000   -0.00000000
     The local contribution  to forces
     atom    1 type  1   force =     0.89261508    0.00000000    0.00000000
     atom    2 type  1   force =    -0.89237728    0.00000000    0.00000000
     The core correction contribution to forces
     atom    1 type  1   force =     0.00000000    0.00000000    0.00000000
     atom    2 type  1   force =     0.00000000    0.00000000    0.00000000
     The Hubbard contrib.    to forces
     atom    1 type  1   force =     0.00000000    0.00000000    0.00000000
     atom    2 type  1   force =     0.00000000    0.00000000    0.00000000
     The SCF correction term to forces
     atom    1 type  1   force =    -0.00000308    0.00000000   -0.00000000
     atom    2 type  1   force =     0.00001593   -0.00000000   -0.00000000

     Total force =     0.008375     Total SCF correction =     0.000016
     Energy error            =      3.7E-05 Ry
     Gradient error          =      5.9E-03 Ry/Bohr

     number of scf cycles    =  10
     number of bfgs steps    =   2

     energy             old  =      -2.3178378363 Ry
     energy             new  =      -2.3178009311 Ry

     CASE: energy            _new > energy            _old

     new trust radius        =       0.0002489642 bohr
     new conv_thr            =       0.0000000004 Ry


ATOMIC_POSITIONS (angstrom)
H            -0.0057197585        0.0000000000        0.0000000000
H             0.7457197585        0.0000000000        0.0000000000



     Writing config-only to output data dir ./.save/
     NEW-OLD atomic charge density approx. for the potential

     negative rho (up, down):  4.513E-02 0.000E+00

     total cpu time spent up to now is       43.4 secs

     Self-consistent Calculation

     iteration #  1     ecut=    25.00 Ry     beta= 0.70
     Davidson diagonalization with overlap

---- Real-time Memory Report at c_bands before calling an iterative solver
           357 MiB given to the printing process from OS
             0 MiB allocation reported by mallinfo(arena+hblkhd)
           370 MiB available memory on the node where the printing process lives
------------------
     ethr =  1.00E-06,  avg # of iterations =  2.0

     Threshold (ethr) on eigenvalues was too large:
     Diagonalizing with lowered threshold

     Davidson diagonalization with overlap

---- Real-time Memory Report at c_bands before calling an iterative solver
           357 MiB given to the printing process from OS
             0 MiB allocation reported by mallinfo(arena+hblkhd)
           371 MiB available memory on the node where the printing process lives
------------------
     ethr =  1.83E-08,  avg # of iterations =  1.0

     negative rho (up, down):  4.508E-02 0.000E+00

     total cpu time spent up to now is       44.4 secs

     total energy              =      -2.31782438 Ry
     estimated scf accuracy    <       0.00000039 Ry

     iteration #  2     ecut=    25.00 Ry     beta= 0.70
     Davidson diagonalization with overlap

---- Real-time Memory Report at c_bands before calling an iterative solver
           357 MiB given to the printing process from OS
             0 MiB allocation reported by mallinfo(arena+hblkhd)
           245 MiB available memory on the node where the printing process lives
------------------
     ethr =  1.93E-08,  avg # of iterations =  2.0

     negative rho (up, down):  4.507E-02 0.000E+00

     total cpu time spent up to now is       45.2 secs

     total energy              =      -2.31782915 Ry
     estimated scf accuracy    <          6.2E-09 Ry

     iteration #  3     ecut=    25.00 Ry     beta= 0.70
     Davidson diagonalization with overlap

---- Real-time Memory Report at c_bands before calling an iterative solver
           357 MiB given to the printing process from OS
             0 MiB allocation reported by mallinfo(arena+hblkhd)
           231 MiB available memory on the node where the printing process lives
------------------
     ethr =  3.09E-10,  avg # of iterations =  2.0

     negative rho (up, down):  4.507E-02 0.000E+00

     total cpu time spent up to now is       45.9 secs

     End of self-consistent calculation

          k =-0.5000-0.5000-0.5000 ( 57016 PWs)   bands (ev):

   -10.3775  -1.1114

     occupation numbers 
     1.0000   0.0000

     highest occupied, lowest unoccupied level (ev):   -10.3775   -1.1114

!    total energy              =      -2.31783206 Ry
     estimated scf accuracy    <          1.4E-10 Ry

     The total energy is the sum of the following terms:
     one-electron contribution =      -4.20305658 Ry
     hartree contribution      =       2.23736237 Ry
     xc contribution           =      -1.38258131 Ry
     ewald contribution        =       1.03044346 Ry

     convergence has been achieved in   3 iterations

     Forces acting on atoms (cartesian axes, Ry/au):

     atom    1 type  1   force =     0.00775674    0.00000000    0.00000000
     atom    2 type  1   force =    -0.00775674    0.00000000    0.00000000
     The non-local contrib.  to forces
     atom    1 type  1   force =     0.10860303    0.00000000    0.00000000
     atom    2 type  1   force =    -0.10713065    0.00000000    0.00000000
     The ionic contribution  to forces
     atom    1 type  1   force =    -0.99140236    0.00000000   -0.00000000
     atom    2 type  1   force =     0.99140236    0.00000000   -0.00000000
     The local contribution  to forces
     atom    1 type  1   force =     0.89141342    0.00000000    0.00000000
     atom    2 type  1   force =    -0.89114766    0.00000000    0.00000000
     The core correction contribution to forces
     atom    1 type  1   force =     0.00000000    0.00000000    0.00000000
     atom    2 type  1   force =     0.00000000    0.00000000    0.00000000
     The Hubbard contrib.    to forces
     atom    1 type  1   force =     0.00000000    0.00000000    0.00000000
     atom    2 type  1   force =     0.00000000    0.00000000    0.00000000
     The SCF correction term to forces
     atom    1 type  1   force =    -0.00000578    0.00000000    0.00000000
     atom    2 type  1   force =    -0.00002923    0.00000000   -0.00000000

     Total force =     0.010970     Total SCF correction =     0.000030
     Energy error            =      5.8E-06 Ry
     Gradient error          =      7.8E-03 Ry/Bohr

     number of scf cycles    =  11
     number of bfgs steps    =   2

     energy             old  =      -2.3178378363 Ry
     energy             new  =      -2.3178320587 Ry

     CASE: energy            _new > energy            _old

     new trust radius        =       0.0000511628 bohr

     trust_radius < trust_radius_min

     resetting bfgs history

     new conv_thr            =       0.0000000004 Ry


ATOMIC_POSITIONS (angstrom)
H            -0.0015668117        0.0000000000        0.0000000000
H             0.7415668117        0.0000000000        0.0000000000



     Writing config-only to output data dir ./.save/
     NEW-OLD atomic charge density approx. for the potential

     negative rho (up, down):  4.506E-02 0.000E+00

     total cpu time spent up to now is       46.7 secs

     Self-consistent Calculation

     iteration #  1     ecut=    25.00 Ry     beta= 0.70
     Davidson diagonalization with overlap

---- Real-time Memory Report at c_bands before calling an iterative solver
           357 MiB given to the printing process from OS
             0 MiB allocation reported by mallinfo(arena+hblkhd)
           370 MiB available memory on the node where the printing process lives
------------------
     ethr =  1.00E-06,  avg # of iterations =  3.0

     negative rho (up, down):  4.543E-02 0.000E+00

     total cpu time spent up to now is       47.5 secs

     total energy              =      -2.31762385 Ry
     estimated scf accuracy    <       0.00001982 Ry

     iteration #  2     ecut=    25.00 Ry     beta= 0.70
     Davidson diagonalization with overlap

---- Real-time Memory Report at c_bands before calling an iterative solver
           357 MiB given to the printing process from OS
             0 MiB allocation reported by mallinfo(arena+hblkhd)
           245 MiB available memory on the node where the printing process lives
------------------
     ethr =  9.91E-07,  avg # of iterations =  1.0

     negative rho (up, down):  4.551E-02 0.000E+00

     total cpu time spent up to now is       48.2 secs

     total energy              =      -2.31758036 Ry
     estimated scf accuracy    <       0.00000033 Ry

     iteration #  3     ecut=    25.00 Ry     beta= 0.70
     Davidson diagonalization with overlap

---- Real-time Memory Report at c_bands before calling an iterative solver
           357 MiB given to the printing process from OS
             0 MiB allocation reported by mallinfo(arena+hblkhd)
           231 MiB available memory on the node where the printing process lives
------------------
     ethr =  1.67E-08,  avg # of iterations =  2.0

     negative rho (up, down):  4.552E-02 0.000E+00

     total cpu time spent up to now is       49.0 secs

     total energy              =      -2.31756554 Ry
     estimated scf accuracy    <       0.00000002 Ry

     iteration #  4     ecut=    25.00 Ry     beta= 0.70
     Davidson diagonalization with overlap

---- Real-time Memory Report at c_bands before calling an iterative solver
           357 MiB given to the printing process from OS
             0 MiB allocation reported by mallinfo(arena+hblkhd)
           217 MiB available memory on the node where the printing process lives
------------------
     ethr =  8.65E-10,  avg # of iterations =  3.0

     negative rho (up, down):  4.552E-02 0.000E+00

     total cpu time spent up to now is       49.8 secs

     total energy              =      -2.31756487 Ry
     estimated scf accuracy    <          8.0E-10 Ry

     iteration #  5     ecut=    25.00 Ry     beta= 0.70
     Davidson diagonalization with overlap

---- Real-time Memory Report at c_bands before calling an iterative solver
           357 MiB given to the printing process from OS
             0 MiB allocation reported by mallinfo(arena+hblkhd)
           203 MiB available memory on the node where the printing process lives
------------------
     ethr =  4.01E-11,  avg # of iterations =  2.0

     negative rho (up, down):  4.552E-02 0.000E+00

     total cpu time spent up to now is       50.5 secs

     End of self-consistent calculation

          k =-0.5000-0.5000-0.5000 ( 57016 PWs)   bands (ev):

   -10.4187  -1.1181

     occupation numbers 
     1.0000   0.0000

     highest occupied, lowest unoccupied level (ev):   -10.4187   -1.1181

!    total energy              =      -2.31757368 Ry
     estimated scf accuracy    <          1.6E-10 Ry

     The total energy is the sum of the following terms:
     one-electron contribution =      -4.22447238 Ry
     hartree contribution      =       2.24864714 Ry
     xc contribution           =      -1.38792685 Ry
     ewald contribution        =       1.04617841 Ry

     convergence has been achieved in   5 iterations

[...]

     total energy              =      -2.31758210 Ry
     estimated scf accuracy    <       0.00000033 Ry

     iteration #  3     ecut=    25.00 Ry     beta= 0.70
     Davidson diagonalization with overlap

---- Real-time Memory Report at c_bands before calling an iterative solver
           357 MiB given to the printing process from OS
             0 MiB allocation reported by mallinfo(arena+hblkhd)
           230 MiB available memory on the node where the printing process lives
------------------
     ethr =  1.63E-08,  avg # of iterations =  2.0

     negative rho (up, down):  4.553E-02 0.000E+00

     total cpu time spent up to now is      200.1 secs

     total energy              =      -2.31756428 Ry
     estimated scf accuracy    <       0.00000001 Ry

     iteration #  4     ecut=    25.00 Ry     beta= 0.70
     Davidson diagonalization with overlap

---- Real-time Memory Report at c_bands before calling an iterative solver
           357 MiB given to the printing process from OS
             0 MiB allocation reported by mallinfo(arena+hblkhd)
           216 MiB available memory on the node where the printing process lives
------------------
     ethr =  6.88E-10,  avg # of iterations =  3.0

     negative rho (up, down):  4.552E-02 0.000E+00

     total cpu time spent up to now is      200.9 secs

     total energy              =      -2.31756485 Ry
     estimated scf accuracy    <          1.7E-09 Ry

     iteration #  5     ecut=    25.00 Ry     beta= 0.70
     Davidson diagonalization with overlap

---- Real-time Memory Report at c_bands before calling an iterative solver
           357 MiB given to the printing process from OS
             0 MiB allocation reported by mallinfo(arena+hblkhd)
           203 MiB available memory on the node where the printing process lives
------------------
     ethr =  8.34E-11,  avg # of iterations =  2.0

     negative rho (up, down):  4.552E-02 0.000E+00

     total cpu time spent up to now is      201.6 secs

     End of self-consistent calculation

          k =-0.5000-0.5000-0.5000 ( 57016 PWs)   bands (ev):

   -10.4187  -1.1197

     occupation numbers 
     1.0000   0.0000

     highest occupied, lowest unoccupied level (ev):   -10.4187   -1.1197

!    total energy              =      -2.31757366 Ry
     estimated scf accuracy    <          2.4E-10 Ry

     The total energy is the sum of the following terms:
     one-electron contribution =      -4.22447380 Ry
     hartree contribution      =       2.24864974 Ry
     xc contribution           =      -1.38792802 Ry
     ewald contribution        =       1.04617841 Ry

     convergence has been achieved in   5 iterations

     Forces acting on atoms (cartesian axes, Ry/au):

     atom    1 type  1   force =    -0.00572463    0.00000000    0.00000000
     atom    2 type  1   force =     0.00572463    0.00000000    0.00000000
     The non-local contrib.  to forces
     atom    1 type  1   force =     0.10906408    0.00000000    0.00000000
     atom    2 type  1   force =    -0.10697268    0.00000000    0.00000000
     The ionic contribution  to forces
     atom    1 type  1   force =    -1.01370266   -0.00000000   -0.00000000
     atom    2 type  1   force =     1.01370266   -0.00000000   -0.00000000
     The local contribution  to forces
     atom    1 type  1   force =     0.90002911    0.00000000    0.00000000
     atom    2 type  1   force =    -0.89981781    0.00000000    0.00000000
     The core correction contribution to forces
     atom    1 type  1   force =     0.00000000    0.00000000    0.00000000
     atom    2 type  1   force =     0.00000000    0.00000000    0.00000000
     The Hubbard contrib.    to forces
     atom    1 type  1   force =     0.00000000    0.00000000    0.00000000
     atom    2 type  1   force =     0.00000000    0.00000000    0.00000000
     The SCF correction term to forces
     atom    1 type  1   force =     0.00008198    0.00000000   -0.00000000
     atom    2 type  1   force =     0.00000962    0.00000000    0.00000000

     Total force =     0.008096     Total SCF correction =     0.000083
     Energy error            =      2.6E-04 Ry
     Gradient error          =      5.7E-03 Ry/Bohr

     number of scf cycles    =  48
     number of bfgs steps    =   2

     energy             old  =      -2.3178378363 Ry
     energy             new  =      -2.3175736586 Ry

     CASE: energy            _new > energy            _old

     new trust radius        =       0.0013428640 bohr
     new conv_thr            =       0.0000000004 Ry


ATOMIC_POSITIONS (angstrom)
H            -0.0051408916        0.0000000000        0.0000000000
H             0.7451408916        0.0000000000        0.0000000000



     Writing config-only to output data dir ./.save/
     NEW-OLD atomic charge density approx. for the potential

     negative rho (up, down):  4.552E-02 0.000E+00

     total cpu time spent up to now is      202.4 secs

     Self-consistent Calculation

     iteration #  1     ecut=    25.00 Ry     beta= 0.70
     Davidson diagonalization with overlap

---- Real-time Memory Report at c_bands before calling an iterative solver
           357 MiB given to the printing process from OS
             0 MiB allocation reported by mallinfo(arena+hblkhd)
           369 MiB available memory on the node where the printing process lives
------------------
     ethr =  1.00E-06,  avg # of iterations =  2.0

     negative rho (up, down):  4.522E-02 0.000E+00

     total cpu time spent up to now is      203.2 secs

     total energy              =      -2.31774320 Ry
     estimated scf accuracy    <       0.00001391 Ry

     iteration #  2     ecut=    25.00 Ry     beta= 0.70
     Davidson diagonalization with overlap

---- Real-time Memory Report at c_bands before calling an iterative solver
           357 MiB given to the printing process from OS
             0 MiB allocation reported by mallinfo(arena+hblkhd)
           245 MiB available memory on the node where the printing process lives
------------------
     ethr =  6.95E-07,  avg # of iterations =  1.0

     negative rho (up, down):  4.514E-02 0.000E+00

     total cpu time spent up to now is      203.9 secs

     total energy              =      -2.31779650 Ry
     estimated scf accuracy    <       0.00000030 Ry

     iteration #  3     ecut=    25.00 Ry     beta= 0.70
     Davidson diagonalization with overlap

---- Real-time Memory Report at c_bands before calling an iterative solver
           357 MiB given to the printing process from OS
             0 MiB allocation reported by mallinfo(arena+hblkhd)
           231 MiB available memory on the node where the printing process lives
------------------
     ethr =  1.51E-08,  avg # of iterations =  2.0

     negative rho (up, down):  4.514E-02 0.000E+00

     total cpu time spent up to now is      204.6 secs

     total energy              =      -2.31780035 Ry
     estimated scf accuracy    <       0.00000001 Ry

     iteration #  4     ecut=    25.00 Ry     beta= 0.70
     Davidson diagonalization with overlap

---- Real-time Memory Report at c_bands before calling an iterative solver
           357 MiB given to the printing process from OS
             0 MiB allocation reported by mallinfo(arena+hblkhd)
           217 MiB available memory on the node where the printing process lives
------------------
     ethr =  6.14E-10,  avg # of iterations =  2.0

     negative rho (up, down):  4.513E-02 0.000E+00

     total cpu time spent up to now is      205.4 secs

     total energy              =      -2.31780367 Ry
     estimated scf accuracy    <          1.6E-09 Ry

     iteration #  5     ecut=    25.00 Ry     beta= 0.70
     Davidson diagonalization with overlap

---- Real-time Memory Report at c_bands before calling an iterative solver
           357 MiB given to the printing process from OS
             0 MiB allocation reported by mallinfo(arena+hblkhd)
           203 MiB available memory on the node where the printing process lives
------------------
     ethr =  8.17E-11,  avg # of iterations =  3.0

     negative rho (up, down):  4.514E-02 0.000E+00

     total cpu time spent up to now is      206.1 secs

     End of self-consistent calculation

          k =-0.5000-0.5000-0.5000 ( 57016 PWs)   bands (ev):

   -10.3831  -1.1151

     occupation numbers 
     1.0000   0.0000

     highest occupied, lowest unoccupied level (ev):   -10.3831   -1.1151

!    total energy              =      -2.31780323 Ry
     estimated scf accuracy    <          5.2E-11 Ry

     The total energy is the sum of the following terms:
     one-electron contribution =      -4.20604616 Ry
     hartree contribution      =       2.23896009 Ry
     xc contribution           =      -1.38333296 Ry
     ewald contribution        =       1.03261580 Ry

     convergence has been achieved in   5 iterations

     Forces acting on atoms (cartesian axes, Ry/au):

     atom    1 type  1   force =     0.00592267    0.00000000    0.00000000
     atom    2 type  1   force =    -0.00592267    0.00000000    0.00000000
     The non-local contrib.  to forces
     atom    1 type  1   force =     0.10868540    0.00000000    0.00000000
     atom    2 type  1   force =    -0.10712193    0.00000000    0.00000000
     The ionic contribution  to forces
     atom    1 type  1   force =    -0.99446638   -0.00000000   -0.00000000
     atom    2 type  1   force =     0.99446638   -0.00000000   -0.00000000
     The local contribution  to forces
     atom    1 type  1   force =     0.89261580    0.00000000    0.00000000
     atom    2 type  1   force =    -0.89237402    0.00000000    0.00000000
     The core correction contribution to forces
     atom    1 type  1   force =     0.00000000    0.00000000    0.00000000
     atom    2 type  1   force =     0.00000000    0.00000000    0.00000000
     The Hubbard contrib.    to forces
     atom    1 type  1   force =     0.00000000    0.00000000    0.00000000
     atom    2 type  1   force =     0.00000000    0.00000000    0.00000000
     The SCF correction term to forces
     atom    1 type  1   force =    -0.00000412    0.00000000    0.00000000
     atom    2 type  1   force =     0.00001494   -0.00000000    0.00000000

     Total force =     0.008376     Total SCF correction =     0.000015
     Energy error            =      3.5E-05 Ry
     Gradient error          =      5.9E-03 Ry/Bohr

     number of scf cycles    =  49
     number of bfgs steps    =   2

     energy             old  =      -2.3178378363 Ry
     energy             new  =      -2.3178032296 Ry

     CASE: energy            _new > energy            _old

     new trust radius        =       0.0002590998 bohr
     new conv_thr            =       0.0000000004 Ry


ATOMIC_POSITIONS (angstrom)
H            -0.0057143949        0.0000000000        0.0000000000
H             0.7457143949        0.0000000000        0.0000000000



     Writing config-only to output data dir ./.save/
     NEW-OLD atomic charge density approx. for the potential

     negative rho (up, down):  4.513E-02 0.000E+00

     total cpu time spent up to now is      206.9 secs

     Self-consistent Calculation

     iteration #  1     ecut=    25.00 Ry     beta= 0.70
     Davidson diagonalization with overlap

---- Real-time Memory Report at c_bands before calling an iterative solver
           357 MiB given to the printing process from OS
             0 MiB allocation reported by mallinfo(arena+hblkhd)
           369 MiB available memory on the node where the printing process lives
------------------
     ethr =  1.00E-06,  avg # of iterations =  2.0

     Threshold (ethr) on eigenvalues was too large:
     Diagonalizing with lowered threshold

     Davidson diagonalization with overlap

---- Real-time Memory Report at c_bands before calling an iterative solver
           357 MiB given to the printing process from OS
             0 MiB allocation reported by mallinfo(arena+hblkhd)
           370 MiB available memory on the node where the printing process lives
------------------
     ethr =  1.80E-08,  avg # of iterations =  1.0

     negative rho (up, down):  4.508E-02 0.000E+00

     total cpu time spent up to now is      207.9 secs

     total energy              =      -2.31782535 Ry
     estimated scf accuracy    <       0.00000038 Ry

     iteration #  2     ecut=    25.00 Ry     beta= 0.70
     Davidson diagonalization with overlap

---- Real-time Memory Report at c_bands before calling an iterative solver
           357 MiB given to the printing process from OS
             0 MiB allocation reported by mallinfo(arena+hblkhd)
           245 MiB available memory on the node where the printing process lives
------------------
     ethr =  1.90E-08,  avg # of iterations =  2.0

     negative rho (up, down):  4.507E-02 0.000E+00

     total cpu time spent up to now is      208.7 secs

     total energy              =      -2.31783104 Ry
     estimated scf accuracy    <          6.2E-09 Ry

     iteration #  3     ecut=    25.00 Ry     beta= 0.70
     Davidson diagonalization with overlap

---- Real-time Memory Report at c_bands before calling an iterative solver
           357 MiB given to the printing process from OS
             0 MiB allocation reported by mallinfo(arena+hblkhd)
           231 MiB available memory on the node where the printing process lives
------------------
     ethr =  3.09E-10,  avg # of iterations =  2.0

     negative rho (up, down):  4.507E-02 0.000E+00

     total cpu time spent up to now is      209.4 secs

     End of self-consistent calculation

          k =-0.5000-0.5000-0.5000 ( 57016 PWs)   bands (ev):

   -10.3776  -1.1127

     occupation numbers 
     1.0000   0.0000

     highest occupied, lowest unoccupied level (ev):   -10.3776   -1.1127

!    total energy              =      -2.31783371 Ry
     estimated scf accuracy    <          1.4E-10 Ry

     The total energy is the sum of the following terms:
     one-electron contribution =      -4.20307812 Ry
     hartree contribution      =       2.23736606 Ry
     xc contribution           =      -1.38258521 Ry
     ewald contribution        =       1.03046356 Ry

     convergence has been achieved in   3 iterations

     Forces acting on atoms (cartesian axes, Ry/au):

     atom    1 type  1   force =     0.00773144    0.00000000    0.00000000
     atom    2 type  1   force =    -0.00773144    0.00000000    0.00000000
     The non-local contrib.  to forces
     atom    1 type  1   force =     0.10859379    0.00000000    0.00000000
     atom    2 type  1   force =    -0.10713636    0.00000000    0.00000000
     The ionic contribution  to forces
     atom    1 type  1   force =    -0.99143069   -0.00000000   -0.00000000
     atom    2 type  1   force =     0.99143069   -0.00000000   -0.00000000
     The local contribution  to forces
     atom    1 type  1   force =     0.89142404    0.00000000    0.00000000
     atom    2 type  1   force =    -0.89115436    0.00000000    0.00000000
     The core correction contribution to forces
     atom    1 type  1   force =     0.00000000    0.00000000    0.00000000
     atom    2 type  1   force =     0.00000000    0.00000000    0.00000000
     The Hubbard contrib.    to forces
     atom    1 type  1   force =     0.00000000    0.00000000    0.00000000
     atom    2 type  1   force =     0.00000000    0.00000000    0.00000000
     The SCF correction term to forces
     atom    1 type  1   force =    -0.00000975   -0.00000000    0.00000000
     atom    2 type  1   force =    -0.00002545   -0.00000000    0.00000000

     Total force =     0.010934     Total SCF correction =     0.000027
     Energy error            =      4.1E-06 Ry
     Gradient error          =      7.7E-03 Ry/Bohr

     number of scf cycles    =  50
     number of bfgs steps    =   2

     energy             old  =      -2.3178378363 Ry
     energy             new  =      -2.3178337133 Ry

     CASE: energy            _new > energy            _old

     new trust radius        =       0.0000653415 bohr

     trust_radius < trust_radius_min

     resetting bfgs history


     The maximum number of steps has been reached.

     End of BFGS Geometry Optimization

ATOMIC_POSITIONS (angstrom)
H            -0.0015668117        0.0000000000        0.0000000000
H             0.7415668117        0.0000000000        0.0000000000



     Writing config-only to output data dir ./.save/
     NEW-OLD atomic charge density approx. for the potential

     negative rho (up, down):  4.506E-02 0.000E+00

     Writing all to output data dir ./.save/

     init_run     :      0.75s CPU      0.77s WALL (       1 calls)
     electrons    :    169.11s CPU    170.89s WALL (      50 calls)
     update_pot   :     24.77s CPU     25.27s WALL (      50 calls)
     forces       :      9.51s CPU      9.70s WALL (      50 calls)

     Called by init_run:
     wfcinit      :      0.07s CPU      0.07s WALL (       1 calls)
     wfcinit:atom :      0.00s CPU      0.00s WALL (       1 calls)
     wfcinit:wfcr :      0.06s CPU      0.06s WALL (       1 calls)
     potinit      :      0.44s CPU      0.45s WALL (       1 calls)
     hinit0       :      0.04s CPU      0.04s WALL (       1 calls)

     Called by electrons:
     c_bands      :     35.82s CPU     35.87s WALL (     233 calls)
     sum_band     :     23.56s CPU     23.86s WALL (     233 calls)
     v_of_rho     :    110.52s CPU    111.05s WALL (     268 calls)
     v_h          :      6.82s CPU      6.83s WALL (     268 calls)
     v_xc         :    103.69s CPU    104.22s WALL (     268 calls)
     newd         :      8.56s CPU      8.56s WALL (     268 calls)
     mix_rho      :      9.23s CPU     10.12s WALL (     233 calls)

     Called by c_bands:
     init_us_2    :      0.71s CPU      0.72s WALL (     467 calls)
     init_us_2:cp :      0.71s CPU      0.72s WALL (     467 calls)
     cegterg      :     35.34s CPU     35.38s WALL (     233 calls)

     Called by sum_band:
     sum_band:wei :      0.00s CPU      0.00s WALL (     233 calls)
     sum_band:loo :      6.90s CPU      6.91s WALL (     233 calls)
     sum_band:buf :      0.00s CPU      0.00s WALL (     233 calls)
     sum_band:ini :      0.37s CPU      0.37s WALL (     233 calls)
     sum_band:cal :      0.09s CPU      0.09s WALL (     233 calls)
     sum_band:bec :      0.00s CPU      0.00s WALL (     233 calls)
     addusdens    :      2.19s CPU      2.41s WALL (     233 calls)
     addusd:skk   :      0.62s CPU      0.71s WALL (     233 calls)
     addusd:dgemm :      0.45s CPU      0.48s WALL (     233 calls)
     addusd:qvan2 :      0.58s CPU      0.63s WALL (     233 calls)

     Called by *egterg:
     cdiaghg      :      0.01s CPU      0.01s WALL (     646 calls)
     cegterg:over :      0.45s CPU      0.45s WALL (     478 calls)
     cegterg:upda :      0.32s CPU      0.33s WALL (     478 calls)
     cegterg:last :      0.61s CPU      0.61s WALL (     441 calls)
     h_psi        :     33.17s CPU     33.21s WALL (     712 calls)
     s_psi        :      0.21s CPU      0.21s WALL (     712 calls)
     g_psi        :      0.14s CPU      0.14s WALL (     478 calls)

     Called by h_psi:
     h_psi:calbec :      0.26s CPU      0.26s WALL (     712 calls)
     vloc_psi     :     32.57s CPU     32.61s WALL (     712 calls)
     add_vuspsi   :      0.21s CPU      0.22s WALL (     712 calls)

     General routines
     calbec       :      0.42s CPU      0.42s WALL (    1145 calls)
     fft          :     60.76s CPU     60.80s WALL (    3114 calls)
     ffts         :      4.68s CPU      4.68s WALL (     233 calls)
     fftw         :     34.71s CPU     34.75s WALL (    2890 calls)


     PWSCF        :   3m27.72s CPU   3m30.25s WALL


   This run was terminated on:   3:46:23  28Feb2022            

=------------------------------------------------------------------------------=
   JOB DONE.
=------------------------------------------------------------------------------=
