
     Program PWSCF v.7.0 starts on 28Feb2022 at  3:25: 1 

     This program is part of the open-source Quantum ESPRESSO suite
     for quantum simulation of materials; please cite
         "P. Giannozzi et al., J. Phys.:Condens. Matter 21 395502 (2009);
         "P. Giannozzi et al., J. Phys.:Condens. Matter 29 465901 (2017);
         "P. Giannozzi et al., J. Chem. Phys. 152 154105 (2020);
          URL http://www.quantum-espresso.org", 
     in publications or presentations arising from this work. More details at
     http://www.quantum-espresso.org/quote

     Serial version
     553 MiB available memory on the printing compute node when the environment starts

     Waiting for input...
     Reading input from standard input

     Current dimensions of program PWSCF are:
     Max number of different atomic species (ntypx) = 10
     Max number of k-points (npk) =  40000
     Max angular momentum in pseudopotentials (lmaxx) =  4

    ============================================================
    |  pseudopotential report for atomic species:  1           |
    |        pseudo potential version   7   3   2              |
    ------------------------------------------------------------
    |  hydrogen            PBE                  exchange-corr  |
    |  z =   1.    zv( 1) =   1.    exfact =   5.00000         |
    |  ifpcor =  0           atomic energy =  -0.91772 Ry      |
    |  index    orbital      occupation    energy              |
    |    1        100           1.00       -0.48               |
    |  rinner =  0.5000                                        |
    |    new generation scheme:                                |
    |    nbeta =  1     kkbeta =  271     rcloc =    0.6000    |
    |    ibeta    l     epsilon   rcut                         |
    |      1       0      -0.48   0.80                         |
    ============================================================

     IMPORTANT: XC functional enforced from input :
     Exchange-correlation= BLYP
                           (   1   3   1   3   0   0   0)
     Any further DFT definition will be discarded
     Please, verify this is what you really want


     G-vector sticks info
     --------------------
     sticks:   dense  smooth     PW     G-vecs:    dense   smooth      PW
     Sum        5721    5721   1565               326029   326029   45961

     Using Slab Decomposition



     bravais-lattice index     =            1
     lattice parameter (alat)  =      30.0000  a.u.
     unit-cell volume          =   27000.0000 (a.u.)^3
     number of atoms/cell      =            2
     number of atomic types    =            1
     number of electrons       =         2.00
     number of Kohn-Sham states=            2
     kinetic-energy cutoff     =      20.0000  Ry
     charge density cutoff     =      80.0000  Ry
     scf convergence threshold =      1.0E-08
     mixing beta               =       0.7000
     number of iterations used =            8  plain     mixing
     energy convergence thresh.=      1.0E-04
     force convergence thresh. =      1.0E-03
     Exchange-correlation= BLYP
                           (   1   3   1   3   0   0   0)
     nstep                     =           50


     celldm(1)=  30.000000  celldm(2)=   0.000000  celldm(3)=   0.000000
     celldm(4)=   0.000000  celldm(5)=   0.000000  celldm(6)=   0.000000

     crystal axes: (cart. coord. in units of alat)
               a(1) = (   1.000000   0.000000   0.000000 )  
               a(2) = (   0.000000   1.000000   0.000000 )  
               a(3) = (   0.000000   0.000000   1.000000 )  

     reciprocal axes: (cart. coord. in units 2 pi/alat)
               b(1) = (  1.000000  0.000000  0.000000 )  
               b(2) = (  0.000000  1.000000  0.000000 )  
               b(3) = (  0.000000  0.000000  1.000000 )  


     PseudoPot. # 1 for hy read from file:
     /root/q-e/pseudo/H_US.van
     MD5 check sum: a9a9bfe98ff56cf4de197d71fc46bb44
     Pseudo is Ultrasoft, Zval =  1.0
     Generated by Vanderbilt code, v. 7.3.2
     Using radial grid of  399 points,  1 beta functions with: 
                l(1) =   0
     Q(r) pseudized with  8 coefficients,  rinner =    0.500

     atomic species   valence    mass     pseudopotential
        H              1.00     1.00784     hy( 1.00)

      8 Sym. Ops. (no inversion) found


                                    s                        frac. trans.

      isym =  1     identity                                     

 cryst.   s( 1) = (     1          0          0      )
                  (     0          1          0      )
                  (     0          0          1      )

 cart.    s( 1) = (  1.0000000  0.0000000  0.0000000 )
                  (  0.0000000  1.0000000  0.0000000 )
                  (  0.0000000  0.0000000  1.0000000 )


      isym =  2     180 deg rotation - cart. axis [1,0,0]        

 cryst.   s( 2) = (     1          0          0      )
                  (     0         -1          0      )
                  (     0          0         -1      )

 cart.    s( 2) = (  1.0000000  0.0000000  0.0000000 )
                  (  0.0000000 -1.0000000  0.0000000 )
                  (  0.0000000  0.0000000 -1.0000000 )


      isym =  3      90 deg rotation - cart. axis [-1,0,0]       

 cryst.   s( 3) = (     1          0          0      )
                  (     0          0         -1      )
                  (     0          1          0      )

 cart.    s( 3) = (  1.0000000  0.0000000  0.0000000 )
                  (  0.0000000  0.0000000  1.0000000 )
                  (  0.0000000 -1.0000000  0.0000000 )


      isym =  4      90 deg rotation - cart. axis [1,0,0]        

 cryst.   s( 4) = (     1          0          0      )
                  (     0          0          1      )
                  (     0         -1          0      )

 cart.    s( 4) = (  1.0000000  0.0000000  0.0000000 )
                  (  0.0000000  0.0000000 -1.0000000 )
                  (  0.0000000  1.0000000  0.0000000 )


      isym =  5     inv. 180 deg rotation - cart. axis [0,0,1]   

 cryst.   s( 5) = (     1          0          0      )
                  (     0          1          0      )
                  (     0          0         -1      )

 cart.    s( 5) = (  1.0000000  0.0000000  0.0000000 )
                  (  0.0000000  1.0000000  0.0000000 )
                  (  0.0000000  0.0000000 -1.0000000 )


      isym =  6     inv. 180 deg rotation - cart. axis [0,1,0]   

 cryst.   s( 6) = (     1          0          0      )
                  (     0         -1          0      )
                  (     0          0          1      )

 cart.    s( 6) = (  1.0000000  0.0000000  0.0000000 )
                  (  0.0000000 -1.0000000  0.0000000 )
                  (  0.0000000  0.0000000  1.0000000 )


      isym =  7     inv. 180 deg rotation - cart. axis [0,1,1]   

 cryst.   s( 7) = (     1          0          0      )
                  (     0          0         -1      )
                  (     0         -1          0      )

 cart.    s( 7) = (  1.0000000  0.0000000  0.0000000 )
                  (  0.0000000  0.0000000 -1.0000000 )
                  (  0.0000000 -1.0000000  0.0000000 )


      isym =  8     inv. 180 deg rotation - cart. axis [0,1,-1]  

 cryst.   s( 8) = (     1          0          0      )
                  (     0          0          1      )
                  (     0          1          0      )

 cart.    s( 8) = (  1.0000000  0.0000000  0.0000000 )
                  (  0.0000000  0.0000000  1.0000000 )
                  (  0.0000000  1.0000000  0.0000000 )


     point group C_4v (4mm) 
     there are  5 classes
     the character table:

       E     2C4   C2    2s_v  2s_d 
A_1    1.00  1.00  1.00  1.00  1.00
A_2    1.00  1.00  1.00 -1.00 -1.00
B_1    1.00 -1.00  1.00  1.00 -1.00
B_2    1.00 -1.00  1.00 -1.00  1.00
E      2.00  0.00 -2.00  0.00  0.00

     the symmetry operations in each class and the name of the first element:

     E        1
          identity                                               
     2C4      3    4
           90 deg rotation - cart. axis [-1,0,0]                 
     C2       2
          180 deg rotation - cart. axis [1,0,0]                  
     2s_v     5    6
          inv. 180 deg rotation - cart. axis [0,0,1]             
     2s_d     7    8
          inv. 180 deg rotation - cart. axis [0,1,1]             

   Cartesian axes

     site n.     atom                  positions (alat units)
         1           H   tau(   1) = (   0.0000000   0.0000000   0.0000000  )
         2           H   tau(   2) = (   0.0541721   0.0000000   0.0000000  )

   Crystallographic axes

     site n.     atom                  positions (cryst. coord.)
         1           H   tau(   1) = (  0.0000000  0.0000000  0.0000000  )
         2           H   tau(   2) = (  0.0541721  0.0000000  0.0000000  )

     number of k points=     1
                       cart. coord. in units 2pi/alat
        k(    1) = (  -0.5000000  -0.5000000  -0.5000000), wk =   2.0000000

                       cryst. coord.
        k(    1) = (  -0.5000000  -0.5000000  -0.5000000), wk =   2.0000000

     Dense  grid:   326029 G-vectors     FFT dimensions: (  90,  90,  90)

     Dynamical RAM for                 wfc:       1.24 MB

     Dynamical RAM for     wfc (w. buffer):       1.24 MB

     Dynamical RAM for           str. fact:       4.97 MB

     Dynamical RAM for           local pot:       0.00 MB

     Dynamical RAM for          nlocal pot:       1.24 MB

     Dynamical RAM for                qrad:       0.01 MB

     Dynamical RAM for          rho,v,vnew:      31.61 MB

     Dynamical RAM for               rhoin:      10.54 MB

     Dynamical RAM for            rho*nmix:      79.60 MB

     Dynamical RAM for           G-vectors:      21.14 MB

     Dynamical RAM for          h,s,v(r/c):       0.00 MB

     Dynamical RAM for          <psi|beta>:       0.00 MB

     Dynamical RAM for                 psi:       2.49 MB

     Dynamical RAM for                hpsi:       2.49 MB

     Dynamical RAM for                spsi:       2.49 MB

     Dynamical RAM for      wfcinit/wfcrot:       2.49 MB

     Dynamical RAM for           addusdens:      29.85 MB

     Dynamical RAM for          addusforce:      42.29 MB

     Estimated static dynamical RAM per process >     108.52 MB

     Estimated max dynamical RAM per process >     230.40 MB

     Initial potential from superposition of free atoms

     starting charge       2.0000, renormalised to       2.0000

     negative rho (up, down):  5.698E-02 0.000E+00
     Starting wfcs are    2 randomized atomic wfcs

     total cpu time spent up to now is        0.6 secs

     Self-consistent Calculation

     iteration #  1     ecut=    20.00 Ry     beta= 0.70
     Davidson diagonalization with overlap

---- Real-time Memory Report at c_bands before calling an iterative solver
           195 MiB given to the printing process from OS
             0 MiB allocation reported by mallinfo(arena+hblkhd)
           426 MiB available memory on the node where the printing process lives
------------------
     ethr =  1.00E-02,  avg # of iterations =  3.0

     negative rho (up, down):  7.916E-02 0.000E+00

     total cpu time spent up to now is        1.3 secs

     total energy              =      -2.30054894 Ry
     estimated scf accuracy    <       0.08671792 Ry

     iteration #  2     ecut=    20.00 Ry     beta= 0.70
     Davidson diagonalization with overlap

---- Real-time Memory Report at c_bands before calling an iterative solver
           241 MiB given to the printing process from OS
             0 MiB allocation reported by mallinfo(arena+hblkhd)
           325 MiB available memory on the node where the printing process lives
------------------
     ethr =  4.34E-03,  avg # of iterations =  2.0

     negative rho (up, down):  8.390E-02 0.000E+00

     total cpu time spent up to now is        1.9 secs

     total energy              =      -2.30310742 Ry
     estimated scf accuracy    <       0.00111588 Ry

     iteration #  3     ecut=    20.00 Ry     beta= 0.70
     Davidson diagonalization with overlap

---- Real-time Memory Report at c_bands before calling an iterative solver
           251 MiB given to the printing process from OS
             0 MiB allocation reported by mallinfo(arena+hblkhd)
           315 MiB available memory on the node where the printing process lives
------------------
     ethr =  5.58E-05,  avg # of iterations = 11.0

     negative rho (up, down):  8.361E-02 0.000E+00

     total cpu time spent up to now is        2.8 secs

     total energy              =      -2.30359899 Ry
     estimated scf accuracy    <       0.00001388 Ry

     iteration #  4     ecut=    20.00 Ry     beta= 0.70
     Davidson diagonalization with overlap

---- Real-time Memory Report at c_bands before calling an iterative solver
           261 MiB given to the printing process from OS
             0 MiB allocation reported by mallinfo(arena+hblkhd)
           305 MiB available memory on the node where the printing process lives
------------------
     ethr =  6.94E-07,  avg # of iterations =  5.0

     negative rho (up, down):  8.361E-02 0.000E+00

     total cpu time spent up to now is        3.5 secs

     total energy              =      -2.30358762 Ry
     estimated scf accuracy    <       0.00000037 Ry

     iteration #  5     ecut=    20.00 Ry     beta= 0.70
     Davidson diagonalization with overlap

---- Real-time Memory Report at c_bands before calling an iterative solver
           271 MiB given to the printing process from OS
             0 MiB allocation reported by mallinfo(arena+hblkhd)
           295 MiB available memory on the node where the printing process lives
------------------
     ethr =  1.84E-08,  avg # of iterations =  2.0

     negative rho (up, down):  8.362E-02 0.000E+00

     total cpu time spent up to now is        4.1 secs

     total energy              =      -2.30358136 Ry
     estimated scf accuracy    <       0.00000002 Ry

     iteration #  6     ecut=    20.00 Ry     beta= 0.70
     Davidson diagonalization with overlap

---- Real-time Memory Report at c_bands before calling an iterative solver
           281 MiB given to the printing process from OS
             0 MiB allocation reported by mallinfo(arena+hblkhd)
           285 MiB available memory on the node where the printing process lives
------------------
     ethr =  9.74E-10,  avg # of iterations =  2.0

     negative rho (up, down):  8.362E-02 0.000E+00

     total cpu time spent up to now is        4.7 secs

     End of self-consistent calculation

          k =-0.5000-0.5000-0.5000 ( 40800 PWs)   bands (ev):

    -9.9970  -1.3861

     occupation numbers 
     1.0000   0.0000

     highest occupied, lowest unoccupied level (ev):    -9.9970   -1.3861

!    total energy              =      -2.30357690 Ry
     estimated scf accuracy    <          1.5E-09 Ry

     The total energy is the sum of the following terms:
     one-electron contribution =      -3.94435115 Ry
     hartree contribution      =       2.11179697 Ry
     xc contribution           =      -1.32377258 Ry
     ewald contribution        =       0.85274986 Ry

     convergence has been achieved in   6 iterations

     Forces acting on atoms (cartesian axes, Ry/au):

     atom    1 type  1   force =     0.13420145    0.00000000    0.00000000
     atom    2 type  1   force =    -0.13420145    0.00000000    0.00000000
     The non-local contrib.  to forces
     atom    1 type  1   force =     0.10091751    0.00000000    0.00000000
     atom    2 type  1   force =    -0.10183044    0.00000000    0.00000000
     The ionic contribution  to forces
     atom    1 type  1   force =    -0.75673451   -0.00000000   -0.00000000
     atom    2 type  1   force =     0.75673451   -0.00000000   -0.00000000
     The local contribution  to forces
     atom    1 type  1   force =     0.78950579    0.00000000    0.00000000
     atom    2 type  1   force =    -0.78948274    0.00000000    0.00000000
     The core correction contribution to forces
     atom    1 type  1   force =     0.00000000    0.00000000    0.00000000
     atom    2 type  1   force =     0.00000000    0.00000000    0.00000000
     The Hubbard contrib.    to forces
     atom    1 type  1   force =     0.00000000    0.00000000    0.00000000
     atom    2 type  1   force =     0.00000000    0.00000000    0.00000000
     The SCF correction term to forces
     atom    1 type  1   force =     0.00011725    0.00000000   -0.00000000
     atom    2 type  1   force =    -0.00001817   -0.00000000    0.00000000

     Total force =     0.189790     Total SCF correction =     0.000119

     BFGS Geometry Optimization
     Energy error            =      0.0E+00 Ry
     Gradient error          =      1.3E-01 Ry/Bohr

     number of scf cycles    =   1
     number of bfgs steps    =   0

     energy             new  =      -2.3035769015 Ry

     new trust radius        =       0.1342014462 bohr
     new conv_thr            =       0.0000000100 Ry


ATOMIC_POSITIONS (angstrom)
H             0.0710163470        0.0000000000        0.0000000000
H             0.7889836530        0.0000000000        0.0000000000



     Writing config-only to output data dir ./.save/
     NEW-OLD atomic charge density approx. for the potential

     negative rho (up, down):  7.733E-02 0.000E+00

     total cpu time spent up to now is        5.3 secs

     Self-consistent Calculation

     iteration #  1     ecut=    20.00 Ry     beta= 0.70
     Davidson diagonalization with overlap

---- Real-time Memory Report at c_bands before calling an iterative solver
           287 MiB given to the printing process from OS
             0 MiB allocation reported by mallinfo(arena+hblkhd)
           417 MiB available memory on the node where the printing process lives
------------------
     ethr =  1.00E-06,  avg # of iterations =  7.0

     negative rho (up, down):  8.948E-02 0.000E+00

     total cpu time spent up to now is        6.1 secs

     total energy              =      -2.31239573 Ry
     estimated scf accuracy    <       0.00496825 Ry

     iteration #  2     ecut=    20.00 Ry     beta= 0.70
     Davidson diagonalization with overlap

---- Real-time Memory Report at c_bands before calling an iterative solver
           287 MiB given to the printing process from OS
             0 MiB allocation reported by mallinfo(arena+hblkhd)
           319 MiB available memory on the node where the printing process lives
------------------
     ethr =  2.48E-04,  avg # of iterations =  1.0

     negative rho (up, down):  9.248E-02 0.000E+00

     total cpu time spent up to now is        6.7 secs

     total energy              =      -2.31071785 Ry
     estimated scf accuracy    <       0.00005550 Ry

     iteration #  3     ecut=    20.00 Ry     beta= 0.70
     Davidson diagonalization with overlap

---- Real-time Memory Report at c_bands before calling an iterative solver
           287 MiB given to the printing process from OS
             0 MiB allocation reported by mallinfo(arena+hblkhd)
           309 MiB available memory on the node where the printing process lives
------------------
     ethr =  2.77E-06,  avg # of iterations =  5.0

     negative rho (up, down):  9.316E-02 0.000E+00

     total cpu time spent up to now is        7.4 secs

     total energy              =      -2.31022989 Ry
     estimated scf accuracy    <       0.00000197 Ry

     iteration #  4     ecut=    20.00 Ry     beta= 0.70
     Davidson diagonalization with overlap

---- Real-time Memory Report at c_bands before calling an iterative solver
           287 MiB given to the printing process from OS
             0 MiB allocation reported by mallinfo(arena+hblkhd)
           299 MiB available memory on the node where the printing process lives
------------------
     ethr =  9.87E-08,  avg # of iterations =  2.0

     negative rho (up, down):  9.314E-02 0.000E+00

     total cpu time spent up to now is        8.0 secs

     total energy              =      -2.31024655 Ry
     estimated scf accuracy    <       0.00000001 Ry

     iteration #  5     ecut=    20.00 Ry     beta= 0.70
     Davidson diagonalization with overlap

---- Real-time Memory Report at c_bands before calling an iterative solver
           287 MiB given to the printing process from OS
             0 MiB allocation reported by mallinfo(arena+hblkhd)
           289 MiB available memory on the node where the printing process lives
------------------
     ethr =  7.00E-10,  avg # of iterations =  3.0

     negative rho (up, down):  9.312E-02 0.000E+00

     total cpu time spent up to now is        8.6 secs

     End of self-consistent calculation

          k =-0.5000-0.5000-0.5000 ( 40800 PWs)   bands (ev):

   -10.6657  -1.3669

     occupation numbers 
     1.0000   0.0000

     highest occupied, lowest unoccupied level (ev):   -10.6657   -1.3669

!    total energy              =      -2.31026012 Ry
     estimated scf accuracy    <          7.9E-09 Ry

     The total energy is the sum of the following terms:
     one-electron contribution =      -4.29285858 Ry
     hartree contribution      =       2.29470821 Ry
     xc contribution           =      -1.40818820 Ry
     ewald contribution        =       1.09607845 Ry

     convergence has been achieved in   5 iterations

     Forces acting on atoms (cartesian axes, Ry/au):

     atom    1 type  1   force =    -0.05208983    0.00000000    0.00000000
     atom    2 type  1   force =     0.05208983    0.00000000    0.00000000
     The non-local contrib.  to forces
     atom    1 type  1   force =     0.10096122    0.00000000    0.00000000
     atom    2 type  1   force =    -0.10089654    0.00000000    0.00000000
     The ionic contribution  to forces
     atom    1 type  1   force =    -1.08605944    0.00000000   -0.00000000
     atom    2 type  1   force =     1.08605944   -0.00000000   -0.00000000
     The local contribution  to forces
     atom    1 type  1   force =     0.93293428    0.00000000    0.00000000
     atom    2 type  1   force =    -0.93305904    0.00000000    0.00000000
     The core correction contribution to forces
     atom    1 type  1   force =     0.00000000    0.00000000    0.00000000
     atom    2 type  1   force =     0.00000000    0.00000000    0.00000000
     The Hubbard contrib.    to forces
     atom    1 type  1   force =     0.00000000    0.00000000    0.00000000
     atom    2 type  1   force =     0.00000000    0.00000000    0.00000000
     The SCF correction term to forces
     atom    1 type  1   force =     0.00010315    0.00000000   -0.00000000
     atom    2 type  1   force =     0.00001501    0.00000000   -0.00000000

     Total force =     0.073666     Total SCF correction =     0.000104
     Energy error            =      6.7E-03 Ry
     Gradient error          =      5.2E-02 Ry/Bohr

     number of scf cycles    =   2
     number of bfgs steps    =   1

     energy             old  =      -2.3035769015 Ry
     energy             new  =      -2.3102601205 Ry

     CASE: energy            _new < energy            _old

     new trust radius        =       0.0375247335 bohr
     new conv_thr            =       0.0000000052 Ry


ATOMIC_POSITIONS (angstrom)
H             0.0511591132        0.0000000000        0.0000000000
H             0.8088408868        0.0000000000        0.0000000000



     Writing config-only to output data dir ./.save/
     NEW-OLD atomic charge density approx. for the potential

     negative rho (up, down):  9.424E-02 0.000E+00

     total cpu time spent up to now is        9.2 secs

     Self-consistent Calculation

     iteration #  1     ecut=    20.00 Ry     beta= 0.70
     Davidson diagonalization with overlap

---- Real-time Memory Report at c_bands before calling an iterative solver
           287 MiB given to the printing process from OS
             0 MiB allocation reported by mallinfo(arena+hblkhd)
           415 MiB available memory on the node where the printing process lives
------------------
     ethr =  1.00E-06,  avg # of iterations =  4.0

     negative rho (up, down):  9.172E-02 0.000E+00

     total cpu time spent up to now is       10.0 secs

     total energy              =      -2.31261971 Ry
     estimated scf accuracy    <       0.00044973 Ry

     iteration #  2     ecut=    20.00 Ry     beta= 0.70
     Davidson diagonalization with overlap

---- Real-time Memory Report at c_bands before calling an iterative solver
           287 MiB given to the printing process from OS
             0 MiB allocation reported by mallinfo(arena+hblkhd)
           318 MiB available memory on the node where the printing process lives
------------------
     ethr =  2.25E-05,  avg # of iterations =  2.0

     negative rho (up, down):  9.141E-02 0.000E+00

     total cpu time spent up to now is       10.6 secs

     total energy              =      -2.31291773 Ry
     estimated scf accuracy    <       0.00000499 Ry

     iteration #  3     ecut=    20.00 Ry     beta= 0.70
     Davidson diagonalization with overlap

---- Real-time Memory Report at c_bands before calling an iterative solver
           287 MiB given to the printing process from OS
             0 MiB allocation reported by mallinfo(arena+hblkhd)
           308 MiB available memory on the node where the printing process lives
------------------
     ethr =  2.49E-07,  avg # of iterations =  3.0

     negative rho (up, down):  9.133E-02 0.000E+00

     total cpu time spent up to now is       11.3 secs

     total energy              =      -2.31300020 Ry
     estimated scf accuracy    <       0.00000022 Ry

     iteration #  4     ecut=    20.00 Ry     beta= 0.70
     Davidson diagonalization with overlap

---- Real-time Memory Report at c_bands before calling an iterative solver
           287 MiB given to the printing process from OS
             0 MiB allocation reported by mallinfo(arena+hblkhd)
           298 MiB available memory on the node where the printing process lives
------------------
     ethr =  1.12E-08,  avg # of iterations =  2.0

     negative rho (up, down):  9.134E-02 0.000E+00

     total cpu time spent up to now is       11.9 secs

     total energy              =      -2.31298187 Ry
     estimated scf accuracy    <       0.00000001 Ry

     iteration #  5     ecut=    20.00 Ry     beta= 0.70
     Davidson diagonalization with overlap

---- Real-time Memory Report at c_bands before calling an iterative solver
           287 MiB given to the printing process from OS
             0 MiB allocation reported by mallinfo(arena+hblkhd)
           288 MiB available memory on the node where the printing process lives
------------------
     ethr =  5.14E-10,  avg # of iterations =  4.0

     negative rho (up, down):  9.134E-02 0.000E+00

     total cpu time spent up to now is       12.6 secs

     total energy              =      -2.31298711 Ry
     estimated scf accuracy    <       0.00000001 Ry

     iteration #  6     ecut=    20.00 Ry     beta= 0.70
     Davidson diagonalization with overlap

---- Real-time Memory Report at c_bands before calling an iterative solver
           288 MiB given to the printing process from OS
             0 MiB allocation reported by mallinfo(arena+hblkhd)
           278 MiB available memory on the node where the printing process lives
------------------
     ethr =  5.04E-10,  avg # of iterations =  3.0

     negative rho (up, down):  9.133E-02 0.000E+00

     total cpu time spent up to now is       13.2 secs

     End of self-consistent calculation

          k =-0.5000-0.5000-0.5000 ( 40800 PWs)   bands (ev):

   -10.4671  -1.3938

     occupation numbers 
     1.0000   0.0000

     highest occupied, lowest unoccupied level (ev):   -10.4671   -1.3938

!    total energy              =      -2.31301711 Ry
     estimated scf accuracy    <          2.9E-09 Ry

     The total energy is the sum of the following terms:
     one-electron contribution =      -4.18967061 Ry
     hartree contribution      =       2.24091075 Ry
     xc contribution           =      -1.38310240 Ry
     ewald contribution        =       1.01884514 Ry

     convergence has been achieved in   6 iterations

     Forces acting on atoms (cartesian axes, Ry/au):

     atom    1 type  1   force =     0.01098957    0.00000000    0.00000000
     atom    2 type  1   force =    -0.01098957    0.00000000    0.00000000
     The non-local contrib.  to forces
     atom    1 type  1   force =     0.09389743    0.00000000    0.00000000
     atom    2 type  1   force =    -0.09486182    0.00000000    0.00000000
     The ionic contribution  to forces
     atom    1 type  1   force =    -0.97512306    0.00000000   -0.00000000
     atom    2 type  1   force =     0.97512306    0.00000000   -0.00000000
     The local contribution  to forces
     atom    1 type  1   force =     0.89182513    0.00000000    0.00000000
     atom    2 type  1   force =    -0.89169971    0.00000000    0.00000000
     The core correction contribution to forces
     atom    1 type  1   force =     0.00000000    0.00000000    0.00000000
     atom    2 type  1   force =     0.00000000    0.00000000    0.00000000
     The Hubbard contrib.    to forces
     atom    1 type  1   force =     0.00000000    0.00000000    0.00000000
     atom    2 type  1   force =     0.00000000    0.00000000    0.00000000
     The SCF correction term to forces
     atom    1 type  1   force =    -0.00006309   -0.00000000    0.00000000
     atom    2 type  1   force =    -0.00000425    0.00000000   -0.00000000

     Total force =     0.015542     Total SCF correction =     0.000063
     Energy error            =      2.8E-03 Ry
     Gradient error          =      1.1E-02 Ry/Bohr

     number of scf cycles    =   3
     number of bfgs steps    =   2

     energy             old  =      -2.3102601205 Ry
     energy             new  =      -2.3130171129 Ry

     CASE: energy            _new < energy            _old

     new trust radius        =       0.0065374858 bohr
     new conv_thr            =       0.0000000011 Ry


ATOMIC_POSITIONS (angstrom)
H             0.0546186017        0.0000000000        0.0000000000
H             0.8053813983        0.0000000000        0.0000000000



     Writing config-only to output data dir ./.save/
     NEW-OLD atomic charge density approx. for the potential

     negative rho (up, down):  9.105E-02 0.000E+00

     total cpu time spent up to now is       13.8 secs

     Self-consistent Calculation

     iteration #  1     ecut=    20.00 Ry     beta= 0.70
     Davidson diagonalization with overlap

---- Real-time Memory Report at c_bands before calling an iterative solver
           288 MiB given to the printing process from OS
             0 MiB allocation reported by mallinfo(arena+hblkhd)
           415 MiB available memory on the node where the printing process lives
------------------
     ethr =  1.00E-06,  avg # of iterations =  2.0

     negative rho (up, down):  9.155E-02 0.000E+00

     total cpu time spent up to now is       14.4 secs

     total energy              =      -2.31294004 Ry
     estimated scf accuracy    <       0.00001315 Ry

     iteration #  2     ecut=    20.00 Ry     beta= 0.70
     Davidson diagonalization with overlap

---- Real-time Memory Report at c_bands before calling an iterative solver
           288 MiB given to the printing process from OS
             0 MiB allocation reported by mallinfo(arena+hblkhd)
           318 MiB available memory on the node where the printing process lives
------------------
     ethr =  6.57E-07,  avg # of iterations =  2.0

     negative rho (up, down):  9.165E-02 0.000E+00

     total cpu time spent up to now is       15.1 secs

     total energy              =      -2.31288958 Ry
     estimated scf accuracy    <       0.00000020 Ry

     iteration #  3     ecut=    20.00 Ry     beta= 0.70
     Davidson diagonalization with overlap

---- Real-time Memory Report at c_bands before calling an iterative solver
           288 MiB given to the printing process from OS
             0 MiB allocation reported by mallinfo(arena+hblkhd)
           308 MiB available memory on the node where the printing process lives
------------------
     ethr =  1.00E-08,  avg # of iterations =  2.0

     negative rho (up, down):  9.167E-02 0.000E+00

     total cpu time spent up to now is       15.7 secs

     total energy              =      -2.31287753 Ry
     estimated scf accuracy    <          4.9E-09 Ry

     iteration #  4     ecut=    20.00 Ry     beta= 0.70
     Davidson diagonalization with overlap

---- Real-time Memory Report at c_bands before calling an iterative solver
           288 MiB given to the printing process from OS
             0 MiB allocation reported by mallinfo(arena+hblkhd)
           298 MiB available memory on the node where the printing process lives
------------------
     ethr =  2.44E-10,  avg # of iterations =  4.0

     negative rho (up, down):  9.167E-02 0.000E+00

     total cpu time spent up to now is       16.3 secs

     total energy              =      -2.31287181 Ry
     estimated scf accuracy    <          1.9E-09 Ry

     iteration #  5     ecut=    20.00 Ry     beta= 0.70
     Davidson diagonalization with overlap

---- Real-time Memory Report at c_bands before calling an iterative solver
           288 MiB given to the printing process from OS
             0 MiB allocation reported by mallinfo(arena+hblkhd)
           288 MiB available memory on the node where the printing process lives
------------------
     ethr =  9.28E-11,  avg # of iterations =  4.0

     negative rho (up, down):  9.167E-02 0.000E+00

     total cpu time spent up to now is       17.0 secs

     total energy              =      -2.31286652 Ry
     estimated scf accuracy    <          3.1E-09 Ry

     iteration #  6     ecut=    20.00 Ry     beta= 0.70
     Davidson diagonalization with overlap

---- Real-time Memory Report at c_bands before calling an iterative solver
           288 MiB given to the printing process from OS
             0 MiB allocation reported by mallinfo(arena+hblkhd)
           278 MiB available memory on the node where the printing process lives
------------------
     ethr =  9.28E-11,  avg # of iterations =  4.0

     negative rho (up, down):  9.167E-02 0.000E+00

     total cpu time spent up to now is       17.7 secs

     total energy              =      -2.31287303 Ry
     estimated scf accuracy    <          3.6E-09 Ry

     iteration #  7     ecut=    20.00 Ry     beta= 0.70
     Davidson diagonalization with overlap

---- Real-time Memory Report at c_bands before calling an iterative solver
           298 MiB given to the printing process from OS
             0 MiB allocation reported by mallinfo(arena+hblkhd)
           268 MiB available memory on the node where the printing process lives
------------------
     ethr =  9.28E-11,  avg # of iterations =  4.0

     negative rho (up, down):  9.166E-02 0.000E+00

     total cpu time spent up to now is       18.3 secs

     End of self-consistent calculation

          k =-0.5000-0.5000-0.5000 ( 40800 PWs)   bands (ev):

   -10.5007  -1.3891

     occupation numbers 
     1.0000   0.0000

     highest occupied, lowest unoccupied level (ev):   -10.5007   -1.3891

!    total energy              =      -2.31288368 Ry
     estimated scf accuracy    <          4.3E-10 Ry

     The total energy is the sum of the following terms:
     one-electron contribution =      -4.20739818 Ry
     hartree contribution      =       2.25027781 Ry
     xc contribution           =      -1.38747573 Ry
     ewald contribution        =       1.03171243 Ry

     convergence has been achieved in   7 iterations

     Forces acting on atoms (cartesian axes, Ry/au):

     atom    1 type  1   force =     0.00058775    0.00000000    0.00000000
     atom    2 type  1   force =    -0.00058775    0.00000000    0.00000000
     The non-local contrib.  to forces
     atom    1 type  1   force =     0.09470092    0.00000000    0.00000000
     atom    2 type  1   force =    -0.09503250    0.00000000    0.00000000
     The ionic contribution  to forces
     atom    1 type  1   force =    -0.99319163    0.00000000   -0.00000000
     atom    2 type  1   force =     0.99319163    0.00000000   -0.00000000
     The local contribution  to forces
     atom    1 type  1   force =     0.89897453    0.00000000    0.00000000
     atom    2 type  1   force =    -0.89898139    0.00000000    0.00000000
     The core correction contribution to forces
     atom    1 type  1   force =     0.00000000    0.00000000    0.00000000
     atom    2 type  1   force =     0.00000000    0.00000000    0.00000000
     The Hubbard contrib.    to forces
     atom    1 type  1   force =     0.00000000    0.00000000    0.00000000
     atom    2 type  1   force =     0.00000000    0.00000000    0.00000000
     The SCF correction term to forces
     atom    1 type  1   force =    -0.00005416   -0.00000000   -0.00000000
     atom    2 type  1   force =     0.00007642   -0.00000000   -0.00000000

     Total force =     0.000831     Total SCF correction =     0.000094
     SCF correction compared to forces is large: reduce conv_thr to get better values
     Energy error            =      1.3E-04 Ry
     Gradient error          =      5.9E-04 Ry/Bohr

     number of scf cycles    =   4
     number of bfgs steps    =   3

     energy             old  =      -2.3130171129 Ry
     energy             new  =      -2.3128836751 Ry

     CASE: energy            _new > energy            _old

     new trust radius        =       0.0016948248 bohr
     new conv_thr            =       0.0000000011 Ry


ATOMIC_POSITIONS (angstrom)
H             0.0520559759        0.0000000000        0.0000000000
H             0.8079440241        0.0000000000        0.0000000000



     Writing config-only to output data dir ./.save/
     NEW-OLD atomic charge density approx. for the potential

     negative rho (up, down):  9.185E-02 0.000E+00

     total cpu time spent up to now is       19.0 secs

     Self-consistent Calculation

     iteration #  1     ecut=    20.00 Ry     beta= 0.70
     Davidson diagonalization with overlap

---- Real-time Memory Report at c_bands before calling an iterative solver
           298 MiB given to the printing process from OS
             0 MiB allocation reported by mallinfo(arena+hblkhd)
           415 MiB available memory on the node where the printing process lives
------------------
     ethr =  1.00E-06,  avg # of iterations =  2.0

     negative rho (up, down):  9.150E-02 0.000E+00

     total cpu time spent up to now is       19.7 secs

     total energy              =      -2.31290566 Ry
     estimated scf accuracy    <       0.00000676 Ry

     iteration #  2     ecut=    20.00 Ry     beta= 0.70
     Davidson diagonalization with overlap

---- Real-time Memory Report at c_bands before calling an iterative solver
           298 MiB given to the printing process from OS
             0 MiB allocation reported by mallinfo(arena+hblkhd)
           318 MiB available memory on the node where the printing process lives
------------------
     ethr =  3.38E-07,  avg # of iterations =  2.0

     negative rho (up, down):  9.144E-02 0.000E+00

     total cpu time spent up to now is       20.3 secs

     total energy              =      -2.31293021 Ry
     estimated scf accuracy    <       0.00000011 Ry

     iteration #  3     ecut=    20.00 Ry     beta= 0.70
     Davidson diagonalization with overlap

---- Real-time Memory Report at c_bands before calling an iterative solver
           298 MiB given to the printing process from OS
             0 MiB allocation reported by mallinfo(arena+hblkhd)
           308 MiB available memory on the node where the printing process lives
------------------
     ethr =  5.46E-09,  avg # of iterations =  2.0

     negative rho (up, down):  9.142E-02 0.000E+00

     total cpu time spent up to now is       20.9 secs

     total energy              =      -2.31296761 Ry
     estimated scf accuracy    <          4.6E-09 Ry

     iteration #  4     ecut=    20.00 Ry     beta= 0.70
     Davidson diagonalization with overlap

---- Real-time Memory Report at c_bands before calling an iterative solver
           298 MiB given to the printing process from OS
             0 MiB allocation reported by mallinfo(arena+hblkhd)
           298 MiB available memory on the node where the printing process lives
------------------
     ethr =  2.28E-10,  avg # of iterations =  4.0

     negative rho (up, down):  9.143E-02 0.000E+00

     total cpu time spent up to now is       21.5 secs

     total energy              =      -2.31296811 Ry
     estimated scf accuracy    <          7.5E-09 Ry

     iteration #  5     ecut=    20.00 Ry     beta= 0.70
     Davidson diagonalization with overlap

---- Real-time Memory Report at c_bands before calling an iterative solver
           298 MiB given to the printing process from OS
             0 MiB allocation reported by mallinfo(arena+hblkhd)
           288 MiB available memory on the node where the printing process lives
------------------
     ethr =  2.28E-10,  avg # of iterations =  3.0

     negative rho (up, down):  9.143E-02 0.000E+00

     total cpu time spent up to now is       22.2 secs

     total energy              =      -2.31294813 Ry
     estimated scf accuracy    <       0.00000001 Ry

     iteration #  6     ecut=    20.00 Ry     beta= 0.70
     Davidson diagonalization with overlap

---- Real-time Memory Report at c_bands before calling an iterative solver
           298 MiB given to the printing process from OS
             0 MiB allocation reported by mallinfo(arena+hblkhd)
           278 MiB available memory on the node where the printing process lives
------------------
     ethr =  2.28E-10,  avg # of iterations =  4.0

     negative rho (up, down):  9.143E-02 0.000E+00

     total cpu time spent up to now is       22.9 secs

     total energy              =      -2.31295000 Ry
     estimated scf accuracy    <          3.4E-09 Ry

     iteration #  7     ecut=    20.00 Ry     beta= 0.70
     Davidson diagonalization with overlap

---- Real-time Memory Report at c_bands before calling an iterative solver
           298 MiB given to the printing process from OS
             0 MiB allocation reported by mallinfo(arena+hblkhd)
           268 MiB available memory on the node where the printing process lives
------------------
     ethr =  1.68E-10,  avg # of iterations =  1.0

     negative rho (up, down):  9.143E-02 0.000E+00

     total cpu time spent up to now is       23.5 secs

     total energy              =      -2.31294998 Ry
     estimated scf accuracy    <          3.4E-09 Ry

     iteration #  8     ecut=    20.00 Ry     beta= 0.70
     Davidson diagonalization with overlap

---- Real-time Memory Report at c_bands before calling an iterative solver
           307 MiB given to the printing process from OS
             0 MiB allocation reported by mallinfo(arena+hblkhd)
           258 MiB available memory on the node where the printing process lives
------------------
     ethr =  1.68E-10,  avg # of iterations =  1.0

     negative rho (up, down):  9.143E-02 0.000E+00

     total cpu time spent up to now is       24.1 secs

     total energy              =      -2.31294979 Ry
     estimated scf accuracy    <          3.4E-09 Ry

     iteration #  9     ecut=    20.00 Ry     beta= 0.70
     Davidson diagonalization with overlap

---- Real-time Memory Report at c_bands before calling an iterative solver
           317 MiB given to the printing process from OS
             0 MiB allocation reported by mallinfo(arena+hblkhd)
           248 MiB available memory on the node where the printing process lives
------------------
     ethr =  1.68E-10,  avg # of iterations =  2.0

     negative rho (up, down):  9.141E-02 0.000E+00

     total cpu time spent up to now is       24.8 secs

     total energy              =      -2.31297785 Ry
     estimated scf accuracy    <          2.5E-09 Ry

     iteration # 10     ecut=    20.00 Ry     beta= 0.70
     Davidson diagonalization with overlap

---- Real-time Memory Report at c_bands before calling an iterative solver
           327 MiB given to the printing process from OS
             0 MiB allocation reported by mallinfo(arena+hblkhd)
           238 MiB available memory on the node where the printing process lives
------------------
     ethr =  1.23E-10,  avg # of iterations =  4.0

     negative rho (up, down):  9.139E-02 0.000E+00

     total cpu time spent up to now is       25.5 secs

     total energy              =      -2.31302556 Ry
     estimated scf accuracy    <          8.7E-09 Ry

     iteration # 11     ecut=    20.00 Ry     beta= 0.70
     Davidson diagonalization with overlap

---- Real-time Memory Report at c_bands before calling an iterative solver
           327 MiB given to the printing process from OS
             0 MiB allocation reported by mallinfo(arena+hblkhd)
           238 MiB available memory on the node where the printing process lives
------------------
     ethr =  1.23E-10,  avg # of iterations =  4.0

     negative rho (up, down):  9.141E-02 0.000E+00

     total cpu time spent up to now is       26.2 secs

     total energy              =      -2.31298050 Ry
     estimated scf accuracy    <       0.00000005 Ry

     iteration # 12     ecut=    20.00 Ry     beta= 0.70
     Davidson diagonalization with overlap

---- Real-time Memory Report at c_bands before calling an iterative solver
           327 MiB given to the printing process from OS
             0 MiB allocation reported by mallinfo(arena+hblkhd)
           238 MiB available memory on the node where the printing process lives
------------------
     ethr =  1.23E-10,  avg # of iterations =  4.0

     negative rho (up, down):  9.142E-02 0.000E+00

     total cpu time spent up to now is       26.9 secs

     total energy              =      -2.31297373 Ry
     estimated scf accuracy    <       0.00000001 Ry

     iteration # 13     ecut=    20.00 Ry     beta= 0.70
     Davidson diagonalization with overlap

---- Real-time Memory Report at c_bands before calling an iterative solver
           327 MiB given to the printing process from OS
             0 MiB allocation reported by mallinfo(arena+hblkhd)
           238 MiB available memory on the node where the printing process lives
------------------
     ethr =  1.23E-10,  avg # of iterations =  4.0

     negative rho (up, down):  9.142E-02 0.000E+00

     total cpu time spent up to now is       27.6 secs

     total energy              =      -2.31297485 Ry
     estimated scf accuracy    <       0.00000001 Ry

     iteration # 14     ecut=    20.00 Ry     beta= 0.70
     Davidson diagonalization with overlap

---- Real-time Memory Report at c_bands before calling an iterative solver
           327 MiB given to the printing process from OS
             0 MiB allocation reported by mallinfo(arena+hblkhd)
           238 MiB available memory on the node where the printing process lives
------------------
     ethr =  1.23E-10,  avg # of iterations =  3.0

     negative rho (up, down):  9.142E-02 0.000E+00

     total cpu time spent up to now is       28.3 secs

     total energy              =      -2.31296757 Ry
     estimated scf accuracy    <       0.00000002 Ry

     iteration # 15     ecut=    20.00 Ry     beta= 0.70
     Davidson diagonalization with overlap

---- Real-time Memory Report at c_bands before calling an iterative solver
           327 MiB given to the printing process from OS
             0 MiB allocation reported by mallinfo(arena+hblkhd)
           238 MiB available memory on the node where the printing process lives
------------------
     ethr =  1.23E-10,  avg # of iterations =  4.0

     negative rho (up, down):  9.142E-02 0.000E+00

     total cpu time spent up to now is       29.0 secs

     total energy              =      -2.31296160 Ry
     estimated scf accuracy    <          1.5E-09 Ry

     iteration # 16     ecut=    20.00 Ry     beta= 0.70
     Davidson diagonalization with overlap

---- Real-time Memory Report at c_bands before calling an iterative solver
           327 MiB given to the printing process from OS
             0 MiB allocation reported by mallinfo(arena+hblkhd)
           238 MiB available memory on the node where the printing process lives
------------------
     ethr =  7.57E-11,  avg # of iterations =  3.0

     negative rho (up, down):  9.143E-02 0.000E+00

     total cpu time spent up to now is       29.6 secs

     End of self-consistent calculation

          k =-0.5000-0.5000-0.5000 ( 40800 PWs)   bands (ev):

   -10.4758  -1.3942

     occupation numbers 
     1.0000   0.0000

     highest occupied, lowest unoccupied level (ev):   -10.4758   -1.3942

!    total energy              =      -2.31295628 Ry
     estimated scf accuracy    <          1.5E-10 Ry

     The total energy is the sum of the following terms:
     one-electron contribution =      -4.19431531 Ry
     hartree contribution      =       2.24345391 Ry
     xc contribution           =      -1.38425319 Ry
     ewald contribution        =       1.02215831 Ry

     convergence has been achieved in  16 iterations

     Forces acting on atoms (cartesian axes, Ry/au):

     atom    1 type  1   force =     0.00840484    0.00000000    0.00000000
     atom    2 type  1   force =    -0.00840484    0.00000000    0.00000000
     The non-local contrib.  to forces
     atom    1 type  1   force =     0.09409849    0.00000000    0.00000000
     atom    2 type  1   force =    -0.09488250    0.00000000    0.00000000
     The ionic contribution  to forces
     atom    1 type  1   force =    -0.97975969    0.00000000   -0.00000000
     atom    2 type  1   force =     0.97975969    0.00000000   -0.00000000
     The local contribution  to forces
     atom    1 type  1   force =     0.89373442    0.00000000    0.00000000
     atom    2 type  1   force =    -0.89361454    0.00000000    0.00000000
     The core correction contribution to forces
     atom    1 type  1   force =     0.00000000    0.00000000    0.00000000
     atom    2 type  1   force =     0.00000000    0.00000000    0.00000000
     The Hubbard contrib.    to forces
     atom    1 type  1   force =     0.00000000    0.00000000    0.00000000
     atom    2 type  1   force =     0.00000000    0.00000000    0.00000000
     The SCF correction term to forces
     atom    1 type  1   force =    -0.00000761   -0.00000000   -0.00000000
     atom    2 type  1   force =    -0.00000672   -0.00000000   -0.00000000

     Total force =     0.011886     Total SCF correction =     0.000010
     Energy error            =      6.1E-05 Ry
     Gradient error          =      8.4E-03 Ry/Bohr

     number of scf cycles    =   5
     number of bfgs steps    =   3

     energy             old  =      -2.3130171129 Ry
     energy             new  =      -2.3129562755 Ry

     CASE: energy            _new > energy            _old

     new trust radius        =       0.0003218204 bohr
     new conv_thr            =       0.0000000011 Ry


ATOMIC_POSITIONS (angstrom)
H             0.0513294132        0.0000000000        0.0000000000
H             0.8086705868        0.0000000000        0.0000000000



     Writing config-only to output data dir ./.save/
     NEW-OLD atomic charge density approx. for the potential

     negative rho (up, down):  9.148E-02 0.000E+00

     total cpu time spent up to now is       30.2 secs

     Self-consistent Calculation

     iteration #  1     ecut=    20.00 Ry     beta= 0.70
     Davidson diagonalization with overlap

---- Real-time Memory Report at c_bands before calling an iterative solver
           327 MiB given to the printing process from OS
             0 MiB allocation reported by mallinfo(arena+hblkhd)
           415 MiB available memory on the node where the printing process lives
------------------
     ethr =  1.00E-06,  avg # of iterations =  2.0

     Threshold (ethr) on eigenvalues was too large:
     Diagonalizing with lowered threshold

     Davidson diagonalization with overlap

---- Real-time Memory Report at c_bands before calling an iterative solver
           327 MiB given to the printing process from OS
             0 MiB allocation reported by mallinfo(arena+hblkhd)
           399 MiB available memory on the node where the printing process lives
------------------
     ethr =  3.06E-08,  avg # of iterations =  1.0

     negative rho (up, down):  9.137E-02 0.000E+00

     total cpu time spent up to now is       31.0 secs

     total energy              =      -2.31298503 Ry
     estimated scf accuracy    <       0.00000068 Ry

     iteration #  2     ecut=    20.00 Ry     beta= 0.70
     Davidson diagonalization with overlap

---- Real-time Memory Report at c_bands before calling an iterative solver
           327 MiB given to the printing process from OS
             0 MiB allocation reported by mallinfo(arena+hblkhd)
           318 MiB available memory on the node where the printing process lives
------------------
     ethr =  3.38E-08,  avg # of iterations =  2.0

     negative rho (up, down):  9.137E-02 0.000E+00

     total cpu time spent up to now is       31.6 secs

     total energy              =      -2.31296655 Ry
     estimated scf accuracy    <       0.00000001 Ry

     iteration #  3     ecut=    20.00 Ry     beta= 0.70
     Davidson diagonalization with overlap

---- Real-time Memory Report at c_bands before calling an iterative solver
           327 MiB given to the printing process from OS
             0 MiB allocation reported by mallinfo(arena+hblkhd)
           308 MiB available memory on the node where the printing process lives
------------------
     ethr =  6.83E-10,  avg # of iterations =  4.0

     negative rho (up, down):  9.135E-02 0.000E+00

     total cpu time spent up to now is       32.3 secs

     total energy              =      -2.31298350 Ry
     estimated scf accuracy    <       0.00000001 Ry

     iteration #  4     ecut=    20.00 Ry     beta= 0.70
     Davidson diagonalization with overlap

---- Real-time Memory Report at c_bands before calling an iterative solver
           327 MiB given to the printing process from OS
             0 MiB allocation reported by mallinfo(arena+hblkhd)
           298 MiB available memory on the node where the printing process lives
------------------
     ethr =  6.83E-10,  avg # of iterations =  3.0

     negative rho (up, down):  9.135E-02 0.000E+00

     total cpu time spent up to now is       32.9 secs

     End of self-consistent calculation

          k =-0.5000-0.5000-0.5000 ( 40800 PWs)   bands (ev):

   -10.4690  -1.3925

     occupation numbers 
     1.0000   0.0000

     highest occupied, lowest unoccupied level (ev):   -10.4690   -1.3925

!    total energy              =      -2.31299935 Ry
     estimated scf accuracy    <          5.5E-10 Ry

     The total energy is the sum of the following terms:
     one-electron contribution =      -4.19055729 Ry
     hartree contribution      =       2.24140440 Ry
     xc contribution           =      -1.38331951 Ry
     ewald contribution        =       1.01947305 Ry

     convergence has been achieved in   4 iterations

     Forces acting on atoms (cartesian axes, Ry/au):

     atom    1 type  1   force =     0.01053700    0.00000000    0.00000000
     atom    2 type  1   force =    -0.01053700    0.00000000    0.00000000
     The non-local contrib.  to forces
     atom    1 type  1   force =     0.09396865    0.00000000    0.00000000
     atom    2 type  1   force =    -0.09490042    0.00000000    0.00000000
     The ionic contribution  to forces
     atom    1 type  1   force =    -0.97600095   -0.00000000   -0.00000000
     atom    2 type  1   force =     0.97600095    0.00000000   -0.00000000
     The local contribution  to forces
     atom    1 type  1   force =     0.89218732    0.00000000    0.00000000
     atom    2 type  1   force =    -0.89208188    0.00000000    0.00000000
     The core correction contribution to forces
     atom    1 type  1   force =     0.00000000    0.00000000    0.00000000
     atom    2 type  1   force =     0.00000000    0.00000000    0.00000000
     The Hubbard contrib.    to forces
     atom    1 type  1   force =     0.00000000    0.00000000    0.00000000
     atom    2 type  1   force =     0.00000000    0.00000000    0.00000000
     The SCF correction term to forces
     atom    1 type  1   force =    -0.00002477    0.00000000    0.00000000
     atom    2 type  1   force =     0.00003761    0.00000000   -0.00000000

     Total force =     0.014902     Total SCF correction =     0.000045
     Energy error            =      1.8E-05 Ry
     Gradient error          =      1.1E-02 Ry/Bohr

     number of scf cycles    =   6
     number of bfgs steps    =   3

     energy             old  =      -2.3130171129 Ry
     energy             new  =      -2.3129993466 Ry

     CASE: energy            _new > energy            _old

     new trust radius        =       0.0000458209 bohr

     trust_radius < trust_radius_min

     resetting bfgs history

     new conv_thr            =       0.0000000011 Ry


ATOMIC_POSITIONS (angstrom)
H             0.0569745432        0.0000000000        0.0000000000
H             0.8030254568        0.0000000000        0.0000000000



     Writing config-only to output data dir ./.save/
     NEW-OLD atomic charge density approx. for the potential

     negative rho (up, down):  9.088E-02 0.000E+00

     total cpu time spent up to now is       33.5 secs

     Self-consistent Calculation

     iteration #  1     ecut=    20.00 Ry     beta= 0.70
     Davidson diagonalization with overlap

---- Real-time Memory Report at c_bands before calling an iterative solver
           327 MiB given to the printing process from OS
             0 MiB allocation reported by mallinfo(arena+hblkhd)
           415 MiB available memory on the node where the printing process lives
------------------
     ethr =  1.00E-06,  avg # of iterations =  3.0

     negative rho (up, down):  9.170E-02 0.000E+00

     total cpu time spent up to now is       34.2 secs

     total energy              =      -2.31282748 Ry
     estimated scf accuracy    <       0.00003610 Ry

     iteration #  2     ecut=    20.00 Ry     beta= 0.70
     Davidson diagonalization with overlap

---- Real-time Memory Report at c_bands before calling an iterative solver
           327 MiB given to the printing process from OS
             0 MiB allocation reported by mallinfo(arena+hblkhd)
           318 MiB available memory on the node where the printing process lives
------------------
     ethr =  1.81E-06,  avg # of iterations =  2.0

     negative rho (up, down):  9.184E-02 0.000E+00

     total cpu time spent up to now is       34.8 secs

     total energy              =      -2.31274173 Ry
     estimated scf accuracy    <       0.00000040 Ry

     iteration #  3     ecut=    20.00 Ry     beta= 0.70
     Davidson diagonalization with overlap

---- Real-time Memory Report at c_bands before calling an iterative solver
           327 MiB given to the printing process from OS
             0 MiB allocation reported by mallinfo(arena+hblkhd)
           308 MiB available memory on the node where the printing process lives
------------------
     ethr =  2.02E-08,  avg # of iterations =  2.0

     negative rho (up, down):  9.187E-02 0.000E+00

     total cpu time spent up to now is       35.4 secs

     total energy              =      -2.31271171 Ry
     estimated scf accuracy    <       0.00000002 Ry

     iteration #  4     ecut=    20.00 Ry     beta= 0.70
     Davidson diagonalization with overlap

---- Real-time Memory Report at c_bands before calling an iterative solver
           327 MiB given to the printing process from OS
             0 MiB allocation reported by mallinfo(arena+hblkhd)
           298 MiB available memory on the node where the printing process lives
------------------
     ethr =  7.81E-10,  avg # of iterations =  3.0

     negative rho (up, down):  9.187E-02 0.000E+00

     total cpu time spent up to now is       36.1 secs

     total energy              =      -2.31270989 Ry
     estimated scf accuracy    <          1.2E-09 Ry

     iteration #  5     ecut=    20.00 Ry     beta= 0.70
     Davidson diagonalization with overlap

---- Real-time Memory Report at c_bands before calling an iterative solver
           327 MiB given to the printing process from OS
             0 MiB allocation reported by mallinfo(arena+hblkhd)
           288 MiB available memory on the node where the printing process lives
------------------
     ethr =  6.02E-11,  avg # of iterations =  4.0

     negative rho (up, down):  9.187E-02 0.000E+00

     total cpu time spent up to now is       36.8 secs

     total energy              =      -2.31271680 Ry
     estimated scf accuracy    <          1.1E-09 Ry

     iteration #  6     ecut=    20.00 Ry     beta= 0.70
     Davidson diagonalization with overlap

---- Real-time Memory Report at c_bands before calling an iterative solver
           327 MiB given to the printing process from OS
             0 MiB allocation reported by mallinfo(arena+hblkhd)
           278 MiB available memory on the node where the printing process lives
------------------
     ethr =  5.55E-11,  avg # of iterations =  4.0

     negative rho (up, down):  9.187E-02 0.000E+00

     total cpu time spent up to now is       37.4 secs

     total energy              =      -2.31271267 Ry
     estimated scf accuracy    <          3.7E-09 Ry

     iteration #  7     ecut=    20.00 Ry     beta= 0.70
     Davidson diagonalization with overlap

---- Real-time Memory Report at c_bands before calling an iterative solver
           327 MiB given to the printing process from OS
             0 MiB allocation reported by mallinfo(arena+hblkhd)
           268 MiB available memory on the node where the printing process lives
------------------
     ethr =  5.55E-11,  avg # of iterations =  4.0

     negative rho (up, down):  9.187E-02 0.000E+00

     total cpu time spent up to now is       38.0 secs

     End of self-consistent calculation

          k =-0.5000-0.5000-0.5000 ( 40800 PWs)   bands (ev):

   -10.5240  -1.3861

     occupation numbers 
     1.0000   0.0000

     highest occupied, lowest unoccupied level (ev):   -10.5240   -1.3861

!    total energy              =      -2.31271048 Ry
     estimated scf accuracy    <          1.9E-10 Ry

     The total energy is the sum of the following terms:
     one-electron contribution =      -4.21951209 Ry
     hartree contribution      =       2.25663730 Ry
     xc contribution           =      -1.39044756 Ry
     ewald contribution        =       1.04061186 Ry

     convergence has been achieved in   7 iterations

     Forces acting on atoms (cartesian axes, Ry/au):

     atom    1 type  1   force =    -0.00640391    0.00000000    0.00000000
     atom    2 type  1   force =     0.00640391    0.00000000    0.00000000
     The non-local contrib.  to forces
     atom    1 type  1   force =     0.09544038    0.00000000    0.00000000
     atom    2 type  1   force =    -0.09562067    0.00000000    0.00000000
     The ionic contribution  to forces
     atom    1 type  1   force =    -1.00578521   -0.00000000   -0.00000000
     atom    2 type  1   force =     1.00578521    0.00000000   -0.00000000
     The local contribution  to forces
     atom    1 type  1   force =     0.90388156    0.00000000    0.00000000
     atom    2 type  1   force =    -0.90386613    0.00000000    0.00000000
     The core correction contribution to forces
     atom    1 type  1   force =     0.00000000    0.00000000    0.00000000
     atom    2 type  1   force =     0.00000000    0.00000000    0.00000000
     The Hubbard contrib.    to forces
     atom    1 type  1   force =     0.00000000    0.00000000    0.00000000
     atom    2 type  1   force =     0.00000000    0.00000000    0.00000000
     The SCF correction term to forces
     atom    1 type  1   force =    -0.00000597   -0.00000000    0.00000000
     atom    2 type  1   force =     0.00004018    0.00000000   -0.00000000

     Total force =     0.009057     Total SCF correction =     0.000041
     Energy error            =      3.1E-04 Ry
     Gradient error          =      6.4E-03 Ry/Bohr

     number of scf cycles    =   7
     number of bfgs steps    =   3

     energy             old  =      -2.3130171129 Ry
     energy             new  =      -2.3127104815 Ry

     CASE: energy            _new > energy            _old

     new trust radius        =       0.0024211667 bohr
     new conv_thr            =       0.0000000011 Ry


ATOMIC_POSITIONS (angstrom)
H             0.0524403395        0.0000000000        0.0000000000
H             0.8075596605        0.0000000000        0.0000000000



     Writing config-only to output data dir ./.save/
     NEW-OLD atomic charge density approx. for the potential

     negative rho (up, down):  9.220E-02 0.000E+00

     total cpu time spent up to now is       38.7 secs

     Self-consistent Calculation

     iteration #  1     ecut=    20.00 Ry     beta= 0.70
     Davidson diagonalization with overlap

---- Real-time Memory Report at c_bands before calling an iterative solver
           327 MiB given to the printing process from OS
             0 MiB allocation reported by mallinfo(arena+hblkhd)
           415 MiB available memory on the node where the printing process lives
------------------
     ethr =  1.00E-06,  avg # of iterations =  3.0

     negative rho (up, down):  9.159E-02 0.000E+00

     total cpu time spent up to now is       39.4 secs

     total energy              =      -2.31282943 Ry
     estimated scf accuracy    <       0.00002232 Ry

     iteration #  2     ecut=    20.00 Ry     beta= 0.70
     Davidson diagonalization with overlap

---- Real-time Memory Report at c_bands before calling an iterative solver
           327 MiB given to the printing process from OS
             0 MiB allocation reported by mallinfo(arena+hblkhd)
           318 MiB available memory on the node where the printing process lives
------------------
     ethr =  1.12E-06,  avg # of iterations =  2.0

     negative rho (up, down):  9.148E-02 0.000E+00

     total cpu time spent up to now is       40.0 secs

     total energy              =      -2.31292155 Ry
     estimated scf accuracy    <       0.00000031 Ry

     iteration #  3     ecut=    20.00 Ry     beta= 0.70
     Davidson diagonalization with overlap

---- Real-time Memory Report at c_bands before calling an iterative solver
           327 MiB given to the printing process from OS
             0 MiB allocation reported by mallinfo(arena+hblkhd)
           308 MiB available memory on the node where the printing process lives
------------------
     ethr =  1.53E-08,  avg # of iterations =  2.0

     negative rho (up, down):  9.146E-02 0.000E+00

     total cpu time spent up to now is       40.6 secs

     total energy              =      -2.31295089 Ry
     estimated scf accuracy    <          8.7E-09 Ry

     iteration #  4     ecut=    20.00 Ry     beta= 0.70
     Davidson diagonalization with overlap

---- Real-time Memory Report at c_bands before calling an iterative solver
           327 MiB given to the printing process from OS
             0 MiB allocation reported by mallinfo(arena+hblkhd)
           298 MiB available memory on the node where the printing process lives
------------------
     ethr =  4.34E-10,  avg # of iterations =  3.0

     negative rho (up, down):  9.146E-02 0.000E+00

     total cpu time spent up to now is       41.3 secs

     total energy              =      -2.31294479 Ry
     estimated scf accuracy    <          3.2E-09 Ry

     iteration #  5     ecut=    20.00 Ry     beta= 0.70
     Davidson diagonalization with overlap

---- Real-time Memory Report at c_bands before calling an iterative solver
           327 MiB given to the printing process from OS
             0 MiB allocation reported by mallinfo(arena+hblkhd)
           288 MiB available memory on the node where the printing process lives
------------------
     ethr =  1.60E-10,  avg # of iterations =  3.0

     negative rho (up, down):  9.147E-02 0.000E+00

     total cpu time spent up to now is       41.9 secs

     End of self-consistent calculation

          k =-0.5000-0.5000-0.5000 ( 40800 PWs)   bands (ev):

   -10.4793  -1.3916

     occupation numbers 
     1.0000   0.0000

     highest occupied, lowest unoccupied level (ev):   -10.4793   -1.3916

!    total energy              =      -2.31293728 Ry
     estimated scf accuracy    <          2.1E-10 Ry

     The total energy is the sum of the following terms:
     one-electron contribution =      -4.19629505 Ry
     hartree contribution      =       2.24451753 Ry
     xc contribution           =      -1.38474281 Ry
     ewald contribution        =       1.02358304 Ry

     convergence has been achieved in   5 iterations

     Forces acting on atoms (cartesian axes, Ry/au):

     atom    1 type  1   force =     0.00735578    0.00000000    0.00000000
     atom    2 type  1   force =    -0.00735578    0.00000000    0.00000000
     The non-local contrib.  to forces
     atom    1 type  1   force =     0.09422613    0.00000000    0.00000000
     atom    2 type  1   force =    -0.09499682    0.00000000    0.00000000
     The ionic contribution  to forces
     atom    1 type  1   force =    -0.98175690    0.00000000   -0.00000000
     atom    2 type  1   force =     0.98175690   -0.00000000   -0.00000000
     The local contribution  to forces
     atom    1 type  1   force =     0.89452988    0.00000000    0.00000000
     atom    2 type  1   force =    -0.89443015    0.00000000    0.00000000
     The core correction contribution to forces
     atom    1 type  1   force =     0.00000000    0.00000000    0.00000000
     atom    2 type  1   force =     0.00000000    0.00000000    0.00000000
     The Hubbard contrib.    to forces
     atom    1 type  1   force =     0.00000000    0.00000000    0.00000000
     atom    2 type  1   force =     0.00000000    0.00000000    0.00000000
     The SCF correction term to forces
     atom    1 type  1   force =     0.00004632    0.00000000    0.00000000
     atom    2 type  1   force =     0.00000394   -0.00000000    0.00000000

     Total force =     0.010403     Total SCF correction =     0.000046
     Energy error            =      8.0E-05 Ry
     Gradient error          =      7.4E-03 Ry/Bohr

     number of scf cycles    =   8
     number of bfgs steps    =   3

     energy             old  =      -2.3130171129 Ry
     energy             new  =      -2.3129372815 Ry

     CASE: energy            _new > energy            _old

     new trust radius        =       0.0004842018 bohr
     new conv_thr            =       0.0000000011 Ry


ATOMIC_POSITIONS (angstrom)
H             0.0514153417        0.0000000000        0.0000000000
H             0.8085846583        0.0000000000        0.0000000000



     Writing config-only to output data dir ./.save/
     NEW-OLD atomic charge density approx. for the potential

     negative rho (up, down):  9.154E-02 0.000E+00

     total cpu time spent up to now is       42.5 secs

     Self-consistent Calculation

     iteration #  1     ecut=    20.00 Ry     beta= 0.70
     Davidson diagonalization with overlap

---- Real-time Memory Report at c_bands before calling an iterative solver
           327 MiB given to the printing process from OS
             0 MiB allocation reported by mallinfo(arena+hblkhd)
           415 MiB available memory on the node where the printing process lives
------------------
     ethr =  1.00E-06,  avg # of iterations =  2.0

     Threshold (ethr) on eigenvalues was too large:
     Diagonalizing with lowered threshold

     Davidson diagonalization with overlap

---- Real-time Memory Report at c_bands before calling an iterative solver
           327 MiB given to the printing process from OS
             0 MiB allocation reported by mallinfo(arena+hblkhd)
           399 MiB available memory on the node where the printing process lives
------------------
     ethr =  6.10E-08,  avg # of iterations =  1.0

     negative rho (up, down):  9.138E-02 0.000E+00

     total cpu time spent up to now is       43.3 secs

     total energy              =      -2.31297946 Ry
     estimated scf accuracy    <       0.00000132 Ry

     iteration #  2     ecut=    20.00 Ry     beta= 0.70
     Davidson diagonalization with overlap

---- Real-time Memory Report at c_bands before calling an iterative solver
           327 MiB given to the printing process from OS
             0 MiB allocation reported by mallinfo(arena+hblkhd)
           318 MiB available memory on the node where the printing process lives
------------------
     ethr =  6.59E-08,  avg # of iterations =  2.0

     negative rho (up, down):  9.138E-02 0.000E+00

     total cpu time spent up to now is       43.9 secs

     total energy              =      -2.31295632 Ry
     estimated scf accuracy    <       0.00000002 Ry

     iteration #  3     ecut=    20.00 Ry     beta= 0.70
     Davidson diagonalization with overlap

---- Real-time Memory Report at c_bands before calling an iterative solver
           327 MiB given to the printing process from OS
             0 MiB allocation reported by mallinfo(arena+hblkhd)
           308 MiB available memory on the node where the printing process lives
------------------
     ethr =  8.97E-10,  avg # of iterations =  4.0

     negative rho (up, down):  9.136E-02 0.000E+00

     total cpu time spent up to now is       44.6 secs

     total energy              =      -2.31297460 Ry
     estimated scf accuracy    <       0.00000001 Ry

     iteration #  4     ecut=    20.00 Ry     beta= 0.70
     Davidson diagonalization with overlap

---- Real-time Memory Report at c_bands before calling an iterative solver
           327 MiB given to the printing process from OS
             0 MiB allocation reported by mallinfo(arena+hblkhd)
           298 MiB available memory on the node where the printing process lives
------------------
     ethr =  7.39E-10,  avg # of iterations =  2.0

     negative rho (up, down):  9.135E-02 0.000E+00

     total cpu time spent up to now is       45.2 secs

     End of self-consistent calculation

          k =-0.5000-0.5000-0.5000 ( 40800 PWs)   bands (ev):

   -10.4698  -1.3948

     occupation numbers 
     1.0000   0.0000

     highest occupied, lowest unoccupied level (ev):   -10.4698   -1.3948

!    total energy              =      -2.31299966 Ry
     estimated scf accuracy    <          4.8E-10 Ry

     The total energy is the sum of the following terms:
     one-electron contribution =      -4.19099887 Ry
     hartree contribution      =       2.24164280 Ry
     xc contribution           =      -1.38343367 Ry
     ewald contribution        =       1.01979009 Ry

     convergence has been achieved in   4 iterations

     Forces acting on atoms (cartesian axes, Ry/au):

     atom    1 type  1   force =     0.01022962    0.00000000    0.00000000
     atom    2 type  1   force =    -0.01022962    0.00000000    0.00000000
     The non-local contrib.  to forces
     atom    1 type  1   force =     0.09388456    0.00000000    0.00000000
     atom    2 type  1   force =    -0.09493698    0.00000000    0.00000000
     The ionic contribution  to forces
     atom    1 type  1   force =    -0.97644435   -0.00000000   -0.00000000
     atom    2 type  1   force =     0.97644435    0.00000000   -0.00000000
     The local contribution  to forces
     atom    1 type  1   force =     0.89237720    0.00000000    0.00000000
     atom    2 type  1   force =    -0.89224982    0.00000000    0.00000000
     The core correction contribution to forces
     atom    1 type  1   force =     0.00000000    0.00000000    0.00000000
     atom    2 type  1   force =     0.00000000    0.00000000    0.00000000
     The Hubbard contrib.    to forces
     atom    1 type  1   force =     0.00000000    0.00000000    0.00000000
     atom    2 type  1   force =     0.00000000    0.00000000    0.00000000
     The SCF correction term to forces
     atom    1 type  1   force =    -0.00006010    0.00000000   -0.00000000
     atom    2 type  1   force =     0.00004050    0.00000000    0.00000000

     Total force =     0.014467     Total SCF correction =     0.000072
     Energy error            =      1.7E-05 Ry
     Gradient error          =      1.0E-02 Ry/Bohr

     number of scf cycles    =   9
     number of bfgs steps    =   3

     energy             old  =      -2.3130171129 Ry
     energy             new  =      -2.3129996565 Ry

     CASE: energy            _new > energy            _old

     new trust radius        =       0.0000916954 bohr

     trust_radius < trust_radius_min

     resetting bfgs history

     new conv_thr            =       0.0000000011 Ry


ATOMIC_POSITIONS (angstrom)
H             0.0569745432        0.0000000000        0.0000000000
H             0.8030254568        0.0000000000        0.0000000000



     Writing config-only to output data dir ./.save/
     NEW-OLD atomic charge density approx. for the potential

     negative rho (up, down):  9.089E-02 0.000E+00

     total cpu time spent up to now is       45.8 secs

     Self-consistent Calculation

     iteration #  1     ecut=    20.00 Ry     beta= 0.70
     Davidson diagonalization with overlap

---- Real-time Memory Report at c_bands before calling an iterative solver
           327 MiB given to the printing process from OS
             0 MiB allocation reported by mallinfo(arena+hblkhd)
           415 MiB available memory on the node where the printing process lives
------------------
     ethr =  1.00E-06,  avg # of iterations =  3.0

     negative rho (up, down):  9.171E-02 0.000E+00

     total cpu time spent up to now is       46.6 secs

     total energy              =      -2.31283209 Ry
     estimated scf accuracy    <       0.00003522 Ry

     iteration #  2     ecut=    20.00 Ry     beta= 0.70
     Davidson diagonalization with overlap

---- Real-time Memory Report at c_bands before calling an iterative solver
           327 MiB given to the printing process from OS
             0 MiB allocation reported by mallinfo(arena+hblkhd)
           318 MiB available memory on the node where the printing process lives
------------------
     ethr =  1.76E-06,  avg # of iterations =  2.0

     negative rho (up, down):  9.183E-02 0.000E+00

     total cpu time spent up to now is       47.3 secs

     total energy              =      -2.31274581 Ry
     estimated scf accuracy    <       0.00000038 Ry

     iteration #  3     ecut=    20.00 Ry     beta= 0.70
     Davidson diagonalization with overlap

---- Real-time Memory Report at c_bands before calling an iterative solver
           327 MiB given to the printing process from OS
             0 MiB allocation reported by mallinfo(arena+hblkhd)
           307 MiB available memory on the node where the printing process lives
------------------
     ethr =  1.88E-08,  avg # of iterations =  2.0

     negative rho (up, down):  9.187E-02 0.000E+00

     total cpu time spent up to now is       48.0 secs

     total energy              =      -2.31271057 Ry
     estimated scf accuracy    <       0.00000001 Ry

     iteration #  4     ecut=    20.00 Ry     beta= 0.70
     Davidson diagonalization with overlap

---- Real-time Memory Report at c_bands before calling an iterative solver
           327 MiB given to the printing process from OS
             0 MiB allocation reported by mallinfo(arena+hblkhd)
[...]

---- Real-time Memory Report at c_bands before calling an iterative solver
           327 MiB given to the printing process from OS
             0 MiB allocation reported by mallinfo(arena+hblkhd)
           205 MiB available memory on the node where the printing process lives
------------------
     ethr =  7.58E-10,  avg # of iterations =  2.0

     negative rho (up, down):  9.135E-02 0.000E+00

     total cpu time spent up to now is      214.0 secs

     End of self-consistent calculation

          k =-0.5000-0.5000-0.5000 ( 40800 PWs)   bands (ev):

   -10.4699  -1.3948

     occupation numbers 
     1.0000   0.0000

     highest occupied, lowest unoccupied level (ev):   -10.4699   -1.3948

!    total energy              =      -2.31300009 Ry
     estimated scf accuracy    <          7.0E-10 Ry

     The total energy is the sum of the following terms:
     one-electron contribution =      -4.19097920 Ry
     hartree contribution      =       2.24161253 Ry
     xc contribution           =      -1.38341990 Ry
     ewald contribution        =       1.01978649 Ry

     convergence has been achieved in   4 iterations

     Forces acting on atoms (cartesian axes, Ry/au):

     atom    1 type  1   force =     0.01022174    0.00000000    0.00000000
     atom    2 type  1   force =    -0.01022174    0.00000000    0.00000000
     The non-local contrib.  to forces
     atom    1 type  1   force =     0.09388335    0.00000000    0.00000000
     atom    2 type  1   force =    -0.09493314    0.00000000    0.00000000
     The ionic contribution  to forces
     atom    1 type  1   force =    -0.97643931   -0.00000000   -0.00000000
     atom    2 type  1   force =     0.97643931   -0.00000000   -0.00000000
     The local contribution  to forces
     atom    1 type  1   force =     0.89236725    0.00000000    0.00000000
     atom    2 type  1   force =    -0.89223981    0.00000000    0.00000000
     The core correction contribution to forces
     atom    1 type  1   force =     0.00000000    0.00000000    0.00000000
     atom    2 type  1   force =     0.00000000    0.00000000    0.00000000
     The Hubbard contrib.    to forces
     atom    1 type  1   force =     0.00000000    0.00000000    0.00000000
     atom    2 type  1   force =     0.00000000    0.00000000    0.00000000
     The SCF correction term to forces
     atom    1 type  1   force =    -0.00005935    0.00000000   -0.00000000
     atom    2 type  1   force =     0.00004210   -0.00000000    0.00000000

     Total force =     0.014456     Total SCF correction =     0.000073
     Energy error            =      1.7E-05 Ry
     Gradient error          =      1.0E-02 Ry/Bohr

     number of scf cycles    =  48
     number of bfgs steps    =   3

     energy             old  =      -2.3130171129 Ry
     energy             new  =      -2.3130000854 Ry

     CASE: energy            _new > energy            _old

     new trust radius        =       0.0000925440 bohr

     trust_radius < trust_radius_min

     resetting bfgs history

     new conv_thr            =       0.0000000011 Ry


ATOMIC_POSITIONS (angstrom)
H             0.0569745432        0.0000000000        0.0000000000
H             0.8030254568        0.0000000000        0.0000000000



     Writing config-only to output data dir ./.save/
     NEW-OLD atomic charge density approx. for the potential

     negative rho (up, down):  9.089E-02 0.000E+00

     total cpu time spent up to now is      214.7 secs

     Self-consistent Calculation

     iteration #  1     ecut=    20.00 Ry     beta= 0.70
     Davidson diagonalization with overlap

---- Real-time Memory Report at c_bands before calling an iterative solver
           327 MiB given to the printing process from OS
             0 MiB allocation reported by mallinfo(arena+hblkhd)
           322 MiB available memory on the node where the printing process lives
------------------
     ethr =  1.00E-06,  avg # of iterations =  3.0

     negative rho (up, down):  9.171E-02 0.000E+00

     total cpu time spent up to now is      215.4 secs

     total energy              =      -2.31283260 Ry
     estimated scf accuracy    <       0.00003528 Ry

     iteration #  2     ecut=    20.00 Ry     beta= 0.70
     Davidson diagonalization with overlap

---- Real-time Memory Report at c_bands before calling an iterative solver
           327 MiB given to the printing process from OS
             0 MiB allocation reported by mallinfo(arena+hblkhd)
           225 MiB available memory on the node where the printing process lives
------------------
     ethr =  1.76E-06,  avg # of iterations =  2.0

     negative rho (up, down):  9.183E-02 0.000E+00

     total cpu time spent up to now is      216.1 secs

     total energy              =      -2.31274531 Ry
     estimated scf accuracy    <       0.00000038 Ry

     iteration #  3     ecut=    20.00 Ry     beta= 0.70
     Davidson diagonalization with overlap

---- Real-time Memory Report at c_bands before calling an iterative solver
           327 MiB given to the printing process from OS
             0 MiB allocation reported by mallinfo(arena+hblkhd)
           215 MiB available memory on the node where the printing process lives
------------------
     ethr =  1.90E-08,  avg # of iterations =  2.0

     negative rho (up, down):  9.187E-02 0.000E+00

     total cpu time spent up to now is      216.7 secs

     total energy              =      -2.31271081 Ry
     estimated scf accuracy    <       0.00000001 Ry

     iteration #  4     ecut=    20.00 Ry     beta= 0.70
     Davidson diagonalization with overlap

---- Real-time Memory Report at c_bands before calling an iterative solver
           327 MiB given to the printing process from OS
             0 MiB allocation reported by mallinfo(arena+hblkhd)
           206 MiB available memory on the node where the printing process lives
------------------
     ethr =  6.71E-10,  avg # of iterations =  3.0

     negative rho (up, down):  9.187E-02 0.000E+00

     total cpu time spent up to now is      217.3 secs

     End of self-consistent calculation

          k =-0.5000-0.5000-0.5000 ( 40800 PWs)   bands (ev):

   -10.5239  -1.3875

     occupation numbers 
     1.0000   0.0000

     highest occupied, lowest unoccupied level (ev):   -10.5239   -1.3875

!    total energy              =      -2.31270895 Ry
     estimated scf accuracy    <          7.8E-10 Ry

     The total energy is the sum of the following terms:
     one-electron contribution =      -4.21951804 Ry
     hartree contribution      =       2.25665054 Ry
     xc contribution           =      -1.39045331 Ry
     ewald contribution        =       1.04061186 Ry

     convergence has been achieved in   4 iterations

     Forces acting on atoms (cartesian axes, Ry/au):

     atom    1 type  1   force =    -0.00631001    0.00000000    0.00000000
     atom    2 type  1   force =     0.00631001    0.00000000    0.00000000
     The non-local contrib.  to forces
     atom    1 type  1   force =     0.09539281    0.00000000    0.00000000
     atom    2 type  1   force =    -0.09571897    0.00000000    0.00000000
     The ionic contribution  to forces
     atom    1 type  1   force =    -1.00578521   -0.00000000   -0.00000000
     atom    2 type  1   force =     1.00578521    0.00000000   -0.00000000
     The local contribution  to forces
     atom    1 type  1   force =     0.90387186    0.00000000    0.00000000
     atom    2 type  1   force =    -0.90386989    0.00000000    0.00000000
     The core correction contribution to forces
     atom    1 type  1   force =     0.00000000    0.00000000    0.00000000
     atom    2 type  1   force =     0.00000000    0.00000000    0.00000000
     The Hubbard contrib.    to forces
     atom    1 type  1   force =     0.00000000    0.00000000    0.00000000
     atom    2 type  1   force =     0.00000000    0.00000000    0.00000000
     The SCF correction term to forces
     atom    1 type  1   force =     0.00005040   -0.00000000    0.00000000
     atom    2 type  1   force =    -0.00004647   -0.00000000   -0.00000000

     Total force =     0.008924     Total SCF correction =     0.000069
     Energy error            =      3.1E-04 Ry
     Gradient error          =      6.3E-03 Ry/Bohr

     number of scf cycles    =  49
     number of bfgs steps    =   3

     energy             old  =      -2.3130171129 Ry
     energy             new  =      -2.3127089491 Ry

     CASE: energy            _new > energy            _old

     new trust radius        =       0.0024144176 bohr
     new conv_thr            =       0.0000000011 Ry


ATOMIC_POSITIONS (angstrom)
H             0.0524367680        0.0000000000        0.0000000000
H             0.8075632320        0.0000000000        0.0000000000



     Writing config-only to output data dir ./.save/
     NEW-OLD atomic charge density approx. for the potential

     negative rho (up, down):  9.221E-02 0.000E+00

     total cpu time spent up to now is      218.0 secs

     Self-consistent Calculation

     iteration #  1     ecut=    20.00 Ry     beta= 0.70
     Davidson diagonalization with overlap

---- Real-time Memory Report at c_bands before calling an iterative solver
           327 MiB given to the printing process from OS
             0 MiB allocation reported by mallinfo(arena+hblkhd)
           323 MiB available memory on the node where the printing process lives
------------------
     ethr =  1.00E-06,  avg # of iterations =  3.0

     negative rho (up, down):  9.159E-02 0.000E+00

     total cpu time spent up to now is      218.7 secs

     total energy              =      -2.31283242 Ry
     estimated scf accuracy    <       0.00002267 Ry

     iteration #  2     ecut=    20.00 Ry     beta= 0.70
     Davidson diagonalization with overlap

---- Real-time Memory Report at c_bands before calling an iterative solver
           327 MiB given to the printing process from OS
             0 MiB allocation reported by mallinfo(arena+hblkhd)
           225 MiB available memory on the node where the printing process lives
------------------
     ethr =  1.13E-06,  avg # of iterations =  2.0

     negative rho (up, down):  9.149E-02 0.000E+00

     total cpu time spent up to now is      219.4 secs

     total energy              =      -2.31291679 Ry
     estimated scf accuracy    <       0.00000028 Ry

     iteration #  3     ecut=    20.00 Ry     beta= 0.70
     Davidson diagonalization with overlap

---- Real-time Memory Report at c_bands before calling an iterative solver
           327 MiB given to the printing process from OS
             0 MiB allocation reported by mallinfo(arena+hblkhd)
           215 MiB available memory on the node where the printing process lives
------------------
     ethr =  1.40E-08,  avg # of iterations =  2.0

     negative rho (up, down):  9.145E-02 0.000E+00

     total cpu time spent up to now is      220.1 secs

     total energy              =      -2.31295637 Ry
     estimated scf accuracy    <          9.1E-09 Ry

     iteration #  4     ecut=    20.00 Ry     beta= 0.70
     Davidson diagonalization with overlap

---- Real-time Memory Report at c_bands before calling an iterative solver
           327 MiB given to the printing process from OS
             0 MiB allocation reported by mallinfo(arena+hblkhd)
           204 MiB available memory on the node where the printing process lives
------------------
     ethr =  4.55E-10,  avg # of iterations =  4.0

     negative rho (up, down):  9.146E-02 0.000E+00

     total cpu time spent up to now is      220.8 secs

     total energy              =      -2.31293722 Ry
     estimated scf accuracy    <       0.00000001 Ry

     iteration #  5     ecut=    20.00 Ry     beta= 0.70
     Davidson diagonalization with overlap

---- Real-time Memory Report at c_bands before calling an iterative solver
           327 MiB given to the printing process from OS
             0 MiB allocation reported by mallinfo(arena+hblkhd)
           194 MiB available memory on the node where the printing process lives
------------------
     ethr =  4.55E-10,  avg # of iterations =  4.0

     negative rho (up, down):  9.146E-02 0.000E+00

     total cpu time spent up to now is      221.5 secs

     total energy              =      -2.31295200 Ry
     estimated scf accuracy    <          2.2E-09 Ry

     iteration #  6     ecut=    20.00 Ry     beta= 0.70
     Davidson diagonalization with overlap

---- Real-time Memory Report at c_bands before calling an iterative solver
           327 MiB given to the printing process from OS
             0 MiB allocation reported by mallinfo(arena+hblkhd)
           184 MiB available memory on the node where the printing process lives
------------------
     ethr =  1.11E-10,  avg # of iterations =  4.0

     negative rho (up, down):  9.146E-02 0.000E+00

     total cpu time spent up to now is      222.2 secs

     total energy              =      -2.31294752 Ry
     estimated scf accuracy    <          2.3E-09 Ry

     iteration #  7     ecut=    20.00 Ry     beta= 0.70
     Davidson diagonalization with overlap

---- Real-time Memory Report at c_bands before calling an iterative solver
           327 MiB given to the printing process from OS
             0 MiB allocation reported by mallinfo(arena+hblkhd)
           174 MiB available memory on the node where the printing process lives
------------------
     ethr =  1.11E-10,  avg # of iterations =  3.0

     negative rho (up, down):  9.147E-02 0.000E+00

     total cpu time spent up to now is      223.0 secs

     End of self-consistent calculation

          k =-0.5000-0.5000-0.5000 ( 40800 PWs)   bands (ev):

   -10.4794  -1.3915

     occupation numbers 
     1.0000   0.0000

     highest occupied, lowest unoccupied level (ev):   -10.4794   -1.3915

!    total energy              =      -2.31293936 Ry
     estimated scf accuracy    <          2.7E-10 Ry

     The total energy is the sum of the following terms:
     one-electron contribution =      -4.19627930 Ry
     hartree contribution      =       2.24451365 Ry
     xc contribution           =      -1.38474350 Ry
     ewald contribution        =       1.02356979 Ry

     convergence has been achieved in   7 iterations

     Forces acting on atoms (cartesian axes, Ry/au):

     atom    1 type  1   force =     0.00736774    0.00000000    0.00000000
     atom    2 type  1   force =    -0.00736774    0.00000000    0.00000000
     The non-local contrib.  to forces
     atom    1 type  1   force =     0.09422765    0.00000000    0.00000000
     atom    2 type  1   force =    -0.09499260    0.00000000    0.00000000
     The ionic contribution  to forces
     atom    1 type  1   force =    -0.98173832    0.00000000   -0.00000000
     atom    2 type  1   force =     0.98173832   -0.00000000   -0.00000000
     The local contribution  to forces
     atom    1 type  1   force =     0.89452642    0.00000000    0.00000000
     atom    2 type  1   force =    -0.89442906    0.00000000    0.00000000
     The core correction contribution to forces
     atom    1 type  1   force =     0.00000000    0.00000000    0.00000000
     atom    2 type  1   force =     0.00000000    0.00000000    0.00000000
     The Hubbard contrib.    to forces
     atom    1 type  1   force =     0.00000000    0.00000000    0.00000000
     atom    2 type  1   force =     0.00000000    0.00000000    0.00000000
     The SCF correction term to forces
     atom    1 type  1   force =     0.00003947   -0.00000000   -0.00000000
     atom    2 type  1   force =     0.00000309   -0.00000000   -0.00000000

     Total force =     0.010420     Total SCF correction =     0.000040
     Energy error            =      7.8E-05 Ry
     Gradient error          =      7.4E-03 Ry/Bohr

     number of scf cycles    =  50
     number of bfgs steps    =   3

     energy             old  =      -2.3130171129 Ry
     energy             new  =      -2.3129393630 Ry

     CASE: energy            _new > energy            _old

     new trust radius        =       0.0004897137 bohr

     The maximum number of steps has been reached.

     End of BFGS Geometry Optimization

ATOMIC_POSITIONS (angstrom)
H             0.0514182586        0.0000000000        0.0000000000
H             0.8085817414        0.0000000000        0.0000000000



     Writing config-only to output data dir ./.save/
     NEW-OLD atomic charge density approx. for the potential

     negative rho (up, down):  9.154E-02 0.000E+00

     Writing all to output data dir ./.save/

     init_run     :      0.59s CPU      0.63s WALL (       1 calls)
     electrons    :    189.78s CPU    191.25s WALL (      50 calls)
     update_pot   :     20.95s CPU     21.33s WALL (      50 calls)
     forces       :      7.28s CPU      7.42s WALL (      50 calls)

     Called by init_run:
     wfcinit      :      0.05s CPU      0.05s WALL (       1 calls)
     wfcinit:atom :      0.00s CPU      0.00s WALL (       1 calls)
     wfcinit:wfcr :      0.04s CPU      0.04s WALL (       1 calls)
     potinit      :      0.36s CPU      0.39s WALL (       1 calls)
     hinit0       :      0.03s CPU      0.03s WALL (       1 calls)

     Called by electrons:
     c_bands      :     44.33s CPU     44.40s WALL (     296 calls)
     sum_band     :     24.15s CPU     24.30s WALL (     296 calls)
     v_of_rho     :    116.75s CPU    117.48s WALL (     330 calls)
     v_h          :      6.66s CPU      6.69s WALL (     330 calls)
     v_xc         :    110.08s CPU    110.78s WALL (     330 calls)
     newd         :      8.38s CPU      8.40s WALL (     330 calls)
     mix_rho      :     11.86s CPU     12.30s WALL (     296 calls)

     Called by c_bands:
     init_us_2    :      0.67s CPU      0.67s WALL (     593 calls)
     init_us_2:cp :      0.67s CPU      0.67s WALL (     593 calls)
     cegterg      :     43.87s CPU     43.94s WALL (     296 calls)

     Called by sum_band:
     sum_band:wei :      0.00s CPU      0.00s WALL (     296 calls)
     sum_band:loo :      7.41s CPU      7.43s WALL (     296 calls)
     sum_band:buf :      0.00s CPU      0.00s WALL (     296 calls)
     sum_band:ini :      0.35s CPU      0.35s WALL (     296 calls)
     sum_band:cal :      0.09s CPU      0.09s WALL (     296 calls)
     sum_band:bec :      0.00s CPU      0.00s WALL (     296 calls)
     addusdens    :      2.07s CPU      2.18s WALL (     296 calls)
     addusd:skk   :      0.59s CPU      0.65s WALL (     296 calls)
     addusd:dgemm :      0.44s CPU      0.46s WALL (     296 calls)
     addusd:qvan2 :      0.55s CPU      0.56s WALL (     296 calls)

     Called by *egterg:
     cdiaghg      :      0.02s CPU      0.02s WALL (    1055 calls)
     cegterg:over :      0.52s CPU      0.52s WALL (     825 calls)
     cegterg:upda :      0.39s CPU      0.39s WALL (     825 calls)
     cegterg:last :      0.78s CPU      0.78s WALL (     692 calls)
     h_psi        :     41.32s CPU     41.39s WALL (    1122 calls)
     s_psi        :      0.22s CPU      0.22s WALL (    1122 calls)
     g_psi        :      0.17s CPU      0.17s WALL (     825 calls)

     Called by h_psi:
     h_psi:calbec :      0.29s CPU      0.29s WALL (    1122 calls)
     vloc_psi     :     40.68s CPU     40.75s WALL (    1122 calls)
     add_vuspsi   :      0.23s CPU      0.23s WALL (    1122 calls)

     General routines
     calbec       :      0.42s CPU      0.42s WALL (    1618 calls)
     fft          :     60.73s CPU     60.83s WALL (    3797 calls)
     ffts         :      4.92s CPU      4.92s WALL (     296 calls)
     fftw         :     42.39s CPU     42.46s WALL (    4162 calls)


     PWSCF        :   3m41.68s CPU   3m43.71s WALL


   This run was terminated on:   3:28:44  28Feb2022            

=------------------------------------------------------------------------------=
   JOB DONE.
=------------------------------------------------------------------------------=
