
     Program PWSCF v.7.0 starts on 28Feb2022 at  0:58:54 

     This program is part of the open-source Quantum ESPRESSO suite
     for quantum simulation of materials; please cite
         "P. Giannozzi et al., J. Phys.:Condens. Matter 21 395502 (2009);
         "P. Giannozzi et al., J. Phys.:Condens. Matter 29 465901 (2017);
         "P. Giannozzi et al., J. Chem. Phys. 152 154105 (2020);
          URL http://www.quantum-espresso.org", 
     in publications or presentations arising from this work. More details at
     http://www.quantum-espresso.org/quote

     Serial version
     112 MiB available memory on the printing compute node when the environment starts

     Waiting for input...
     Reading input from standard input

     Current dimensions of program PWSCF are:
     Max number of different atomic species (ntypx) = 10
     Max number of k-points (npk) =  40000
     Max angular momentum in pseudopotentials (lmaxx) =  4

    ============================================================
    |  pseudopotential report for atomic species:  1           |
    |        pseudo potential version   7   3   2              |
    ------------------------------------------------------------
    |  hydrogen            PBE                  exchange-corr  |
    |  z =   1.    zv( 1) =   1.    exfact =   5.00000         |
    |  ifpcor =  0           atomic energy =  -0.91772 Ry      |
    |  index    orbital      occupation    energy              |
    |    1        100           1.00       -0.48               |
    |  rinner =  0.5000                                        |
    |    new generation scheme:                                |
    |    nbeta =  1     kkbeta =  271     rcloc =    0.6000    |
    |    ibeta    l     epsilon   rcut                         |
    |      1       0      -0.48   0.80                         |
    ============================================================

     IMPORTANT: XC functional enforced from input :
     Exchange-correlation= BLYP
                           (   1   3   1   3   0   0   0)
     Any further DFT definition will be discarded
     Please, verify this is what you really want


     G-vector sticks info
     --------------------
     sticks:   dense  smooth     PW     G-vecs:    dense   smooth      PW
     Sum        1433    1433    421                40651    40651    6451

     Using Slab Decomposition



     bravais-lattice index     =            1
     lattice parameter (alat)  =      30.0000  a.u.
     unit-cell volume          =   27000.0000 (a.u.)^3
     number of atoms/cell      =            2
     number of atomic types    =            1
     number of electrons       =         2.00
     number of Kohn-Sham states=            2
     kinetic-energy cutoff     =       5.0000  Ry
     charge density cutoff     =      20.0000  Ry
     scf convergence threshold =      1.0E-08
     mixing beta               =       0.7000
     number of iterations used =            8  plain     mixing
     energy convergence thresh.=      1.0E-04
     force convergence thresh. =      1.0E-03
     Exchange-correlation= BLYP
                           (   1   3   1   3   0   0   0)
     nstep                     =           50


     celldm(1)=  30.000000  celldm(2)=   0.000000  celldm(3)=   0.000000
     celldm(4)=   0.000000  celldm(5)=   0.000000  celldm(6)=   0.000000

     crystal axes: (cart. coord. in units of alat)
               a(1) = (   1.000000   0.000000   0.000000 )  
               a(2) = (   0.000000   1.000000   0.000000 )  
               a(3) = (   0.000000   0.000000   1.000000 )  

     reciprocal axes: (cart. coord. in units 2 pi/alat)
               b(1) = (  1.000000  0.000000  0.000000 )  
               b(2) = (  0.000000  1.000000  0.000000 )  
               b(3) = (  0.000000  0.000000  1.000000 )  


     PseudoPot. # 1 for hy read from file:
     /root/q-e/pseudo/H_US.van
     MD5 check sum: a9a9bfe98ff56cf4de197d71fc46bb44
     Pseudo is Ultrasoft, Zval =  1.0
     Generated by Vanderbilt code, v. 7.3.2
     Using radial grid of  399 points,  1 beta functions with: 
                l(1) =   0
     Q(r) pseudized with  8 coefficients,  rinner =    0.500

     atomic species   valence    mass     pseudopotential
        H              1.00     1.00784     hy( 1.00)

      8 Sym. Ops. (no inversion) found


                                    s                        frac. trans.

      isym =  1     identity                                     

 cryst.   s( 1) = (     1          0          0      )
                  (     0          1          0      )
                  (     0          0          1      )

 cart.    s( 1) = (  1.0000000  0.0000000  0.0000000 )
                  (  0.0000000  1.0000000  0.0000000 )
                  (  0.0000000  0.0000000  1.0000000 )


      isym =  2     180 deg rotation - cart. axis [1,0,0]        

 cryst.   s( 2) = (     1          0          0      )
                  (     0         -1          0      )
                  (     0          0         -1      )

 cart.    s( 2) = (  1.0000000  0.0000000  0.0000000 )
                  (  0.0000000 -1.0000000  0.0000000 )
                  (  0.0000000  0.0000000 -1.0000000 )


      isym =  3      90 deg rotation - cart. axis [-1,0,0]       

 cryst.   s( 3) = (     1          0          0      )
                  (     0          0         -1      )
                  (     0          1          0      )

 cart.    s( 3) = (  1.0000000  0.0000000  0.0000000 )
                  (  0.0000000  0.0000000  1.0000000 )
                  (  0.0000000 -1.0000000  0.0000000 )


      isym =  4      90 deg rotation - cart. axis [1,0,0]        

 cryst.   s( 4) = (     1          0          0      )
                  (     0          0          1      )
                  (     0         -1          0      )

 cart.    s( 4) = (  1.0000000  0.0000000  0.0000000 )
                  (  0.0000000  0.0000000 -1.0000000 )
                  (  0.0000000  1.0000000  0.0000000 )


      isym =  5     inv. 180 deg rotation - cart. axis [0,0,1]   

 cryst.   s( 5) = (     1          0          0      )
                  (     0          1          0      )
                  (     0          0         -1      )

 cart.    s( 5) = (  1.0000000  0.0000000  0.0000000 )
                  (  0.0000000  1.0000000  0.0000000 )
                  (  0.0000000  0.0000000 -1.0000000 )


      isym =  6     inv. 180 deg rotation - cart. axis [0,1,0]   

 cryst.   s( 6) = (     1          0          0      )
                  (     0         -1          0      )
                  (     0          0          1      )

 cart.    s( 6) = (  1.0000000  0.0000000  0.0000000 )
                  (  0.0000000 -1.0000000  0.0000000 )
                  (  0.0000000  0.0000000  1.0000000 )


      isym =  7     inv. 180 deg rotation - cart. axis [0,1,1]   

 cryst.   s( 7) = (     1          0          0      )
                  (     0          0         -1      )
                  (     0         -1          0      )

 cart.    s( 7) = (  1.0000000  0.0000000  0.0000000 )
                  (  0.0000000  0.0000000 -1.0000000 )
                  (  0.0000000 -1.0000000  0.0000000 )


      isym =  8     inv. 180 deg rotation - cart. axis [0,1,-1]  

 cryst.   s( 8) = (     1          0          0      )
                  (     0          0          1      )
                  (     0          1          0      )

 cart.    s( 8) = (  1.0000000  0.0000000  0.0000000 )
                  (  0.0000000  0.0000000  1.0000000 )
                  (  0.0000000  1.0000000  0.0000000 )


     point group C_4v (4mm) 
     there are  5 classes
     the character table:

       E     2C4   C2    2s_v  2s_d 
A_1    1.00  1.00  1.00  1.00  1.00
A_2    1.00  1.00  1.00 -1.00 -1.00
B_1    1.00 -1.00  1.00  1.00 -1.00
B_2    1.00 -1.00  1.00 -1.00  1.00
E      2.00  0.00 -2.00  0.00  0.00

     the symmetry operations in each class and the name of the first element:

     E        1
          identity                                               
     2C4      3    4
           90 deg rotation - cart. axis [-1,0,0]                 
     C2       2
          180 deg rotation - cart. axis [1,0,0]                  
     2s_v     5    6
          inv. 180 deg rotation - cart. axis [0,0,1]             
     2s_d     7    8
          inv. 180 deg rotation - cart. axis [0,1,1]             

   Cartesian axes

     site n.     atom                  positions (alat units)
         1           H   tau(   1) = (   0.0000000   0.0000000   0.0000000  )
         2           H   tau(   2) = (   0.0629909   0.0000000   0.0000000  )

   Crystallographic axes

     site n.     atom                  positions (cryst. coord.)
         1           H   tau(   1) = (  0.0000000  0.0000000  0.0000000  )
         2           H   tau(   2) = (  0.0629909  0.0000000  0.0000000  )

     number of k points=     1
                       cart. coord. in units 2pi/alat
        k(    1) = (  -0.5000000  -0.5000000  -0.5000000), wk =   2.0000000

                       cryst. coord.
        k(    1) = (  -0.5000000  -0.5000000  -0.5000000), wk =   2.0000000

     Dense  grid:    40651 G-vectors     FFT dimensions: (  45,  45,  45)

     Dynamical RAM for                 wfc:       0.16 MB

     Dynamical RAM for     wfc (w. buffer):       0.16 MB

     Dynamical RAM for           str. fact:       0.62 MB

     Dynamical RAM for           local pot:       0.00 MB

     Dynamical RAM for          nlocal pot:       0.16 MB

     Dynamical RAM for                qrad:       0.00 MB

     Dynamical RAM for          rho,v,vnew:       3.95 MB

     Dynamical RAM for               rhoin:       1.32 MB

     Dynamical RAM for            rho*nmix:       9.92 MB

     Dynamical RAM for           G-vectors:       2.64 MB

     Dynamical RAM for          h,s,v(r/c):       0.00 MB

     Dynamical RAM for          <psi|beta>:       0.00 MB

     Dynamical RAM for                 psi:       0.31 MB

     Dynamical RAM for                hpsi:       0.31 MB

     Dynamical RAM for                spsi:       0.31 MB

     Dynamical RAM for      wfcinit/wfcrot:       0.31 MB

     Dynamical RAM for           addusdens:       3.72 MB

     Dynamical RAM for          addusforce:       5.27 MB

     Estimated static dynamical RAM per process >      13.55 MB

     Estimated max dynamical RAM per process >      28.75 MB

     Initial potential from superposition of free atoms

     starting charge       2.0000, renormalised to       2.0000

     negative rho (up, down):  5.582E-01 0.000E+00
     Starting wfcs are    2 randomized atomic wfcs

     total cpu time spent up to now is        0.1 secs

     Self-consistent Calculation

     iteration #  1     ecut=     5.00 Ry     beta= 0.70
     Davidson diagonalization with overlap

---- Real-time Memory Report at c_bands before calling an iterative solver
            39 MiB given to the printing process from OS
             0 MiB allocation reported by mallinfo(arena+hblkhd)
           112 MiB available memory on the node where the printing process lives
------------------
     ethr =  1.00E-02,  avg # of iterations =  3.0

     negative rho (up, down):  3.937E-01 0.000E+00

     total cpu time spent up to now is        0.2 secs

     total energy              =      -2.03628930 Ry
     estimated scf accuracy    <       0.03021906 Ry

     iteration #  2     ecut=     5.00 Ry     beta= 0.70
     Davidson diagonalization with overlap

---- Real-time Memory Report at c_bands before calling an iterative solver
            46 MiB given to the printing process from OS
             0 MiB allocation reported by mallinfo(arena+hblkhd)
           109 MiB available memory on the node where the printing process lives
------------------
     ethr =  1.51E-03,  avg # of iterations =  2.0

     negative rho (up, down):  3.245E-01 0.000E+00

     total cpu time spent up to now is        0.2 secs

     total energy              =      -2.06447595 Ry
     estimated scf accuracy    <       0.00190898 Ry

     iteration #  3     ecut=     5.00 Ry     beta= 0.70
     Davidson diagonalization with overlap

---- Real-time Memory Report at c_bands before calling an iterative solver
            47 MiB given to the printing process from OS
             0 MiB allocation reported by mallinfo(arena+hblkhd)
           107 MiB available memory on the node where the printing process lives
------------------
     ethr =  9.54E-05,  avg # of iterations =  9.0

     negative rho (up, down):  3.173E-01 0.000E+00

     total cpu time spent up to now is        0.3 secs

     total energy              =      -2.06732166 Ry
     estimated scf accuracy    <       0.00004811 Ry

     iteration #  4     ecut=     5.00 Ry     beta= 0.70
     Davidson diagonalization with overlap

---- Real-time Memory Report at c_bands before calling an iterative solver
            48 MiB given to the printing process from OS
             0 MiB allocation reported by mallinfo(arena+hblkhd)
           107 MiB available memory on the node where the printing process lives
------------------
     ethr =  2.41E-06,  avg # of iterations =  7.0

     negative rho (up, down):  3.155E-01 0.000E+00

     total cpu time spent up to now is        0.4 secs

     total energy              =      -2.06809489 Ry
     estimated scf accuracy    <       0.00001389 Ry

     iteration #  5     ecut=     5.00 Ry     beta= 0.70
     Davidson diagonalization with overlap

---- Real-time Memory Report at c_bands before calling an iterative solver
            50 MiB given to the printing process from OS
             0 MiB allocation reported by mallinfo(arena+hblkhd)
           106 MiB available memory on the node where the printing process lives
------------------
     ethr =  6.94E-07,  avg # of iterations =  2.0

     negative rho (up, down):  3.157E-01 0.000E+00

     total cpu time spent up to now is        0.5 secs

     total energy              =      -2.06802482 Ry
     estimated scf accuracy    <       0.00000065 Ry

     iteration #  6     ecut=     5.00 Ry     beta= 0.70
     Davidson diagonalization with overlap

---- Real-time Memory Report at c_bands before calling an iterative solver
            51 MiB given to the printing process from OS
             0 MiB allocation reported by mallinfo(arena+hblkhd)
           106 MiB available memory on the node where the printing process lives
------------------
     ethr =  3.27E-08,  avg # of iterations =  2.0

     negative rho (up, down):  3.156E-01 0.000E+00

     total cpu time spent up to now is        0.6 secs

     total energy              =      -2.06805992 Ry
     estimated scf accuracy    <       0.00000019 Ry

     iteration #  7     ecut=     5.00 Ry     beta= 0.70
     Davidson diagonalization with overlap

---- Real-time Memory Report at c_bands before calling an iterative solver
            52 MiB given to the printing process from OS
             0 MiB allocation reported by mallinfo(arena+hblkhd)
           105 MiB available memory on the node where the printing process lives
------------------
     ethr =  9.29E-09,  avg # of iterations =  2.0

     negative rho (up, down):  3.156E-01 0.000E+00

     total cpu time spent up to now is        0.6 secs

     total energy              =      -2.06805210 Ry
     estimated scf accuracy    <       0.00000006 Ry

     iteration #  8     ecut=     5.00 Ry     beta= 0.70
     Davidson diagonalization with overlap

---- Real-time Memory Report at c_bands before calling an iterative solver
            53 MiB given to the printing process from OS
             0 MiB allocation reported by mallinfo(arena+hblkhd)
           108 MiB available memory on the node where the printing process lives
------------------
     ethr =  3.19E-09,  avg # of iterations =  2.0

     negative rho (up, down):  3.156E-01 0.000E+00

     total cpu time spent up to now is        0.7 secs

     total energy              =      -2.06807242 Ry
     estimated scf accuracy    <       0.00000002 Ry

     iteration #  9     ecut=     5.00 Ry     beta= 0.70
     Davidson diagonalization with overlap

---- Real-time Memory Report at c_bands before calling an iterative solver
            55 MiB given to the printing process from OS
             0 MiB allocation reported by mallinfo(arena+hblkhd)
           107 MiB available memory on the node where the printing process lives
------------------
     ethr =  9.65E-10,  avg # of iterations =  3.0

     negative rho (up, down):  3.156E-01 0.000E+00

     total cpu time spent up to now is        0.8 secs

     End of self-consistent calculation

          k =-0.5000-0.5000-0.5000 (  5040 PWs)   bands (ev):

    -9.3285  -1.3524

     occupation numbers 
     1.0000   0.0000

     highest occupied, lowest unoccupied level (ev):    -9.3285   -1.3524

!    total energy              =      -2.06806976 Ry
     estimated scf accuracy    <          2.0E-10 Ry

     The total energy is the sum of the following terms:
     one-electron contribution =      -3.42157757 Ry
     hartree contribution      =       1.83172010 Ry
     xc contribution           =      -1.15881764 Ry
     ewald contribution        =       0.68060536 Ry

     convergence has been achieved in   9 iterations

     Forces acting on atoms (cartesian axes, Ry/au):

     atom    1 type  1   force =     0.16824547    0.00000000    0.00000000
     atom    2 type  1   force =    -0.16824547    0.00000000    0.00000000
     The non-local contrib.  to forces
     atom    1 type  1   force =     0.09905643    0.00000000    0.00000000
     atom    2 type  1   force =    -0.09729053    0.00000000    0.00000000
     The ionic contribution  to forces
     atom    1 type  1   force =    -0.55946378    0.00000000   -0.00000000
     atom    2 type  1   force =     0.55946378    0.00000000   -0.00000000
     The local contribution  to forces
     atom    1 type  1   force =     0.62979486   -0.00000000    0.00000000
     atom    2 type  1   force =    -0.62951072    0.00000000    0.00000000
     The core correction contribution to forces
     atom    1 type  1   force =     0.00000000    0.00000000    0.00000000
     atom    2 type  1   force =     0.00000000    0.00000000    0.00000000
     The Hubbard contrib.    to forces
     atom    1 type  1   force =     0.00000000    0.00000000    0.00000000
     atom    2 type  1   force =     0.00000000    0.00000000    0.00000000
     The SCF correction term to forces
     atom    1 type  1   force =    -0.00014736    0.00000000    0.00000000
     atom    2 type  1   force =     0.00008668    0.00000000    0.00000000

     Total force =     0.237935     Total SCF correction =     0.000171

     BFGS Geometry Optimization
     Energy error            =      0.0E+00 Ry
     Gradient error          =      1.7E-01 Ry/Bohr

     number of scf cycles    =   1
     number of bfgs steps    =   0

     energy             new  =      -2.0680697551 Ry

     new trust radius        =       0.1682454672 bohr
     new conv_thr            =       0.0000000100 Ry


ATOMIC_POSITIONS (angstrom)
H             0.0890316671        0.0000000000        0.0000000000
H             0.9109683329        0.0000000000        0.0000000000



     Writing config-only to output data dir ./.save/
     NEW-OLD atomic charge density approx. for the potential

     negative rho (up, down):  3.287E-01 0.000E+00

     total cpu time spent up to now is        0.9 secs

     Self-consistent Calculation

     iteration #  1     ecut=     5.00 Ry     beta= 0.70
     Davidson diagonalization with overlap

---- Real-time Memory Report at c_bands before calling an iterative solver
            55 MiB given to the printing process from OS
             0 MiB allocation reported by mallinfo(arena+hblkhd)
           125 MiB available memory on the node where the printing process lives
------------------
     ethr =  1.00E-06,  avg # of iterations = 10.0

     negative rho (up, down):  3.594E-01 0.000E+00

     total cpu time spent up to now is        1.0 secs

     total energy              =      -2.07264534 Ry
     estimated scf accuracy    <       0.00154738 Ry

     iteration #  2     ecut=     5.00 Ry     beta= 0.70
     Davidson diagonalization with overlap

---- Real-time Memory Report at c_bands before calling an iterative solver
            55 MiB given to the printing process from OS
             0 MiB allocation reported by mallinfo(arena+hblkhd)
           114 MiB available memory on the node where the printing process lives
------------------
     ethr =  7.74E-05,  avg # of iterations =  2.0

     negative rho (up, down):  3.664E-01 0.000E+00

     total cpu time spent up to now is        1.0 secs

     total energy              =      -2.07126851 Ry
     estimated scf accuracy    <       0.00009423 Ry

     iteration #  3     ecut=     5.00 Ry     beta= 0.70
     Davidson diagonalization with overlap

---- Real-time Memory Report at c_bands before calling an iterative solver
            55 MiB given to the printing process from OS
             0 MiB allocation reported by mallinfo(arena+hblkhd)
           113 MiB available memory on the node where the printing process lives
------------------
     ethr =  4.71E-06,  avg # of iterations =  6.0

     negative rho (up, down):  3.666E-01 0.000E+00

     total cpu time spent up to now is        1.1 secs

     total energy              =      -2.07002278 Ry
     estimated scf accuracy    <       0.00009801 Ry

     iteration #  4     ecut=     5.00 Ry     beta= 0.70
     Davidson diagonalization with overlap

---- Real-time Memory Report at c_bands before calling an iterative solver
            55 MiB given to the printing process from OS
             0 MiB allocation reported by mallinfo(arena+hblkhd)
           112 MiB available memory on the node where the printing process lives
------------------
     ethr =  4.71E-06,  avg # of iterations =  6.0

     negative rho (up, down):  3.705E-01 0.000E+00

     total cpu time spent up to now is        1.2 secs

     total energy              =      -2.06929566 Ry
     estimated scf accuracy    <       0.00005993 Ry

     iteration #  5     ecut=     5.00 Ry     beta= 0.70
     Davidson diagonalization with overlap

---- Real-time Memory Report at c_bands before calling an iterative solver
            55 MiB given to the printing process from OS
             0 MiB allocation reported by mallinfo(arena+hblkhd)
           111 MiB available memory on the node where the printing process lives
------------------
     ethr =  3.00E-06,  avg # of iterations =  3.0

     negative rho (up, down):  3.705E-01 0.000E+00

     total cpu time spent up to now is        1.3 secs

     total energy              =      -2.06945930 Ry
     estimated scf accuracy    <       0.00001718 Ry

     iteration #  6     ecut=     5.00 Ry     beta= 0.70
     Davidson diagonalization with overlap

---- Real-time Memory Report at c_bands before calling an iterative solver
            55 MiB given to the printing process from OS
             0 MiB allocation reported by mallinfo(arena+hblkhd)
           109 MiB available memory on the node where the printing process lives
------------------
     ethr =  8.59E-07,  avg # of iterations =  6.0

     negative rho (up, down):  3.710E-01 0.000E+00

     total cpu time spent up to now is        1.4 secs

     total energy              =      -2.06917276 Ry
     estimated scf accuracy    <       0.00002493 Ry

     iteration #  7     ecut=     5.00 Ry     beta= 0.70
     Davidson diagonalization with overlap

---- Real-time Memory Report at c_bands before calling an iterative solver
            55 MiB given to the printing process from OS
             0 MiB allocation reported by mallinfo(arena+hblkhd)
           108 MiB available memory on the node where the printing process lives
------------------
     ethr =  8.59E-07,  avg # of iterations =  6.0

     negative rho (up, down):  3.708E-01 0.000E+00

     total cpu time spent up to now is        1.4 secs

     total energy              =      -2.06945897 Ry
     estimated scf accuracy    <       0.00000719 Ry

     iteration #  8     ecut=     5.00 Ry     beta= 0.70
     Davidson diagonalization with overlap

---- Real-time Memory Report at c_bands before calling an iterative solver
            55 MiB given to the printing process from OS
             0 MiB allocation reported by mallinfo(arena+hblkhd)
           107 MiB available memory on the node where the printing process lives
------------------
     ethr =  3.59E-07,  avg # of iterations =  3.0

     negative rho (up, down):  3.722E-01 0.000E+00

     total cpu time spent up to now is        1.5 secs

     total energy              =      -2.06867744 Ry
     estimated scf accuracy    <       0.00004308 Ry

     iteration #  9     ecut=     5.00 Ry     beta= 0.70
     Davidson diagonalization with overlap

---- Real-time Memory Report at c_bands before calling an iterative solver
            56 MiB given to the printing process from OS
             0 MiB allocation reported by mallinfo(arena+hblkhd)
           105 MiB available memory on the node where the printing process lives
------------------
     ethr =  3.59E-07,  avg # of iterations =  3.0

     negative rho (up, down):  3.695E-01 0.000E+00

     total cpu time spent up to now is        1.6 secs

     total energy              =      -2.06951128 Ry
     estimated scf accuracy    <       0.00000834 Ry

     iteration # 10     ecut=     5.00 Ry     beta= 0.70
     Davidson diagonalization with overlap

---- Real-time Memory Report at c_bands before calling an iterative solver
            58 MiB given to the printing process from OS
             0 MiB allocation reported by mallinfo(arena+hblkhd)
           104 MiB available memory on the node where the printing process lives
------------------
     ethr =  3.59E-07,  avg # of iterations =  7.0

     negative rho (up, down):  3.703E-01 0.000E+00

     total cpu time spent up to now is        1.7 secs

     total energy              =      -2.06926225 Ry
     estimated scf accuracy    <       0.00004910 Ry

     iteration # 11     ecut=     5.00 Ry     beta= 0.70
     Davidson diagonalization with overlap

---- Real-time Memory Report at c_bands before calling an iterative solver
            58 MiB given to the printing process from OS
             0 MiB allocation reported by mallinfo(arena+hblkhd)
           104 MiB available memory on the node where the printing process lives
------------------
     ethr =  3.59E-07,  avg # of iterations =  4.0

     negative rho (up, down):  3.712E-01 0.000E+00

     total cpu time spent up to now is        1.8 secs

     total energy              =      -2.06884968 Ry
     estimated scf accuracy    <       0.00001842 Ry

     iteration # 12     ecut=     5.00 Ry     beta= 0.70
     Davidson diagonalization with overlap

---- Real-time Memory Report at c_bands before calling an iterative solver
            58 MiB given to the printing process from OS
             0 MiB allocation reported by mallinfo(arena+hblkhd)
           104 MiB available memory on the node where the printing process lives
------------------
     ethr =  3.59E-07,  avg # of iterations =  6.0

     negative rho (up, down):  3.715E-01 0.000E+00

     total cpu time spent up to now is        1.9 secs

     total energy              =      -2.06916631 Ry
     estimated scf accuracy    <       0.00001853 Ry

     iteration # 13     ecut=     5.00 Ry     beta= 0.70
     Davidson diagonalization with overlap

---- Real-time Memory Report at c_bands before calling an iterative solver
            58 MiB given to the printing process from OS
             0 MiB allocation reported by mallinfo(arena+hblkhd)
           104 MiB available memory on the node where the printing process lives
------------------
     ethr =  3.59E-07,  avg # of iterations =  3.0

     negative rho (up, down):  3.719E-01 0.000E+00

     total cpu time spent up to now is        1.9 secs

     total energy              =      -2.06937665 Ry
     estimated scf accuracy    <       0.00004015 Ry

     iteration # 14     ecut=     5.00 Ry     beta= 0.70
     Davidson diagonalization with overlap

---- Real-time Memory Report at c_bands before calling an iterative solver
            58 MiB given to the printing process from OS
             0 MiB allocation reported by mallinfo(arena+hblkhd)
           104 MiB available memory on the node where the printing process lives
------------------
     ethr =  3.59E-07,  avg # of iterations =  3.0

     negative rho (up, down):  3.694E-01 0.000E+00

     total cpu time spent up to now is        2.0 secs

     total energy              =      -2.06900463 Ry
     estimated scf accuracy    <       0.00004044 Ry

     iteration # 15     ecut=     5.00 Ry     beta= 0.70
     Davidson diagonalization with overlap

---- Real-time Memory Report at c_bands before calling an iterative solver
            58 MiB given to the printing process from OS
             0 MiB allocation reported by mallinfo(arena+hblkhd)
           104 MiB available memory on the node where the printing process lives
------------------
     ethr =  3.59E-07,  avg # of iterations =  5.0

     negative rho (up, down):  3.689E-01 0.000E+00

     total cpu time spent up to now is        2.1 secs

     total energy              =      -2.06929387 Ry
     estimated scf accuracy    <       0.00004907 Ry

     iteration # 16     ecut=     5.00 Ry     beta= 0.70
     Davidson diagonalization with overlap

---- Real-time Memory Report at c_bands before calling an iterative solver
            58 MiB given to the printing process from OS
             0 MiB allocation reported by mallinfo(arena+hblkhd)
           104 MiB available memory on the node where the printing process lives
------------------
     ethr =  3.59E-07,  avg # of iterations =  6.0

     negative rho (up, down):  3.721E-01 0.000E+00

     total cpu time spent up to now is        2.2 secs

     total energy              =      -2.06849961 Ry
     estimated scf accuracy    <       0.00006535 Ry

     iteration # 17     ecut=     5.00 Ry     beta= 0.70
     Davidson diagonalization with overlap

---- Real-time Memory Report at c_bands before calling an iterative solver
            58 MiB given to the printing process from OS
             0 MiB allocation reported by mallinfo(arena+hblkhd)
           104 MiB available memory on the node where the printing process lives
------------------
     ethr =  3.59E-07,  avg # of iterations =  6.0

     negative rho (up, down):  3.729E-01 0.000E+00

     total cpu time spent up to now is        2.3 secs

     total energy              =      -2.06829979 Ry
     estimated scf accuracy    <       0.00001366 Ry

     iteration # 18     ecut=     5.00 Ry     beta= 0.70
     Davidson diagonalization with overlap

---- Real-time Memory Report at c_bands before calling an iterative solver
            58 MiB given to the printing process from OS
             0 MiB allocation reported by mallinfo(arena+hblkhd)
           104 MiB available memory on the node where the printing process lives
------------------
     ethr =  3.59E-07,  avg # of iterations =  2.0

     negative rho (up, down):  3.722E-01 0.000E+00

     total cpu time spent up to now is        2.3 secs

     total energy              =      -2.06883753 Ry
     estimated scf accuracy    <       0.00000141 Ry

     iteration # 19     ecut=     5.00 Ry     beta= 0.70
     Davidson diagonalization with overlap

---- Real-time Memory Report at c_bands before calling an iterative solver
            58 MiB given to the printing process from OS
             0 MiB allocation reported by mallinfo(arena+hblkhd)
           104 MiB available memory on the node where the printing process lives
------------------
     ethr =  7.04E-08,  avg # of iterations =  4.0

     negative rho (up, down):  3.725E-01 0.000E+00

     total cpu time spent up to now is        2.4 secs

     total energy              =      -2.06827576 Ry
     estimated scf accuracy    <       0.00003157 Ry

     iteration # 20     ecut=     5.00 Ry     beta= 0.70
     Davidson diagonalization with overlap

---- Real-time Memory Report at c_bands before calling an iterative solver
            58 MiB given to the printing process from OS
             0 MiB allocation reported by mallinfo(arena+hblkhd)
           104 MiB available memory on the node where the printing process lives
------------------
     ethr =  7.04E-08,  avg # of iterations =  4.0

     negative rho (up, down):  3.735E-01 0.000E+00

     total cpu time spent up to now is        2.5 secs

     total energy              =      -2.06790376 Ry
     estimated scf accuracy    <       0.00000096 Ry

     iteration # 21     ecut=     5.00 Ry     beta= 0.70
     Davidson diagonalization with overlap

---- Real-time Memory Report at c_bands before calling an iterative solver
            58 MiB given to the printing process from OS
             0 MiB allocation reported by mallinfo(arena+hblkhd)
           104 MiB available memory on the node where the printing process lives
------------------
     ethr =  4.81E-08,  avg # of iterations =  7.0

     negative rho (up, down):  3.731E-01 0.000E+00

     total cpu time spent up to now is        2.6 secs

     total energy              =      -2.06804960 Ry
     estimated scf accuracy    <       0.00001472 Ry

     iteration # 22     ecut=     5.00 Ry     beta= 0.70
     Davidson diagonalization with overlap

---- Real-time Memory Report at c_bands before calling an iterative solver
            58 MiB given to the printing process from OS
             0 MiB allocation reported by mallinfo(arena+hblkhd)
           104 MiB available memory on the node where the printing process lives
------------------
     ethr =  4.81E-08,  avg # of iterations =  7.0

     negative rho (up, down):  3.737E-01 0.000E+00

     total cpu time spent up to now is        2.7 secs

     total energy              =      -2.06795417 Ry
     estimated scf accuracy    <       0.00000035 Ry

     iteration # 23     ecut=     5.00 Ry     beta= 0.70
     Davidson diagonalization with overlap

---- Real-time Memory Report at c_bands before calling an iterative solver
            58 MiB given to the printing process from OS
             0 MiB allocation reported by mallinfo(arena+hblkhd)
           104 MiB available memory on the node where the printing process lives
------------------
     ethr =  1.75E-08,  avg # of iterations = 10.0

     negative rho (up, down):  3.730E-01 0.000E+00

     total cpu time spent up to now is        2.8 secs

     total energy              =      -2.06742730 Ry
     estimated scf accuracy    <       0.00006075 Ry

     iteration # 24     ecut=     5.00 Ry     beta= 0.70
     Davidson diagonalization with overlap

---- Real-time Memory Report at c_bands before calling an iterative solver
            58 MiB given to the printing process from OS
             0 MiB allocation reported by mallinfo(arena+hblkhd)
           104 MiB available memory on the node where the printing process lives
------------------
     ethr =  1.75E-08,  avg # of iterations =  8.0

     negative rho (up, down):  3.730E-01 0.000E+00

     total cpu time spent up to now is        2.9 secs

     total energy              =      -2.06824182 Ry
     estimated scf accuracy    <       0.00000102 Ry

     iteration # 25     ecut=     5.00 Ry     beta= 0.70
     Davidson diagonalization with overlap

---- Real-time Memory Report at c_bands before calling an iterative solver
            58 MiB given to the printing process from OS
             0 MiB allocation reported by mallinfo(arena+hblkhd)
           104 MiB available memory on the node where the printing process lives
------------------
     ethr =  1.75E-08,  avg # of iterations =  4.0

     negative rho (up, down):  3.728E-01 0.000E+00

     total cpu time spent up to now is        3.0 secs

     total energy              =      -2.06824628 Ry
     estimated scf accuracy    <       0.00000037 Ry

     iteration # 26     ecut=     5.00 Ry     beta= 0.70
     Davidson diagonalization with overlap

---- Real-time Memory Report at c_bands before calling an iterative solver
            58 MiB given to the printing process from OS
             0 MiB allocation reported by mallinfo(arena+hblkhd)
           104 MiB available memory on the node where the printing process lives
------------------
     ethr =  1.75E-08,  avg # of iterations =  4.0

     negative rho (up, down):  3.730E-01 0.000E+00

     total cpu time spent up to now is        3.0 secs

     total energy              =      -2.06822366 Ry
     estimated scf accuracy    <       0.00000197 Ry

     iteration # 27     ecut=     5.00 Ry     beta= 0.70
     Davidson diagonalization with overlap

---- Real-time Memory Report at c_bands before calling an iterative solver
            58 MiB given to the printing process from OS
             0 MiB allocation reported by mallinfo(arena+hblkhd)
           104 MiB available memory on the node where the printing process lives
------------------
     ethr =  1.75E-08,  avg # of iterations =  4.0

     negative rho (up, down):  3.730E-01 0.000E+00

     total cpu time spent up to now is        3.1 secs

     total energy              =      -2.06825785 Ry
     estimated scf accuracy    <       0.00000036 Ry

     iteration # 28     ecut=     5.00 Ry     beta= 0.70
     Davidson diagonalization with overlap

---- Real-time Memory Report at c_bands before calling an iterative solver
            58 MiB given to the printing process from OS
             0 MiB allocation reported by mallinfo(arena+hblkhd)
           104 MiB available memory on the node where the printing process lives
------------------
     ethr =  1.75E-08,  avg # of iterations =  3.0

     negative rho (up, down):  3.730E-01 0.000E+00

     total cpu time spent up to now is        3.2 secs

     total energy              =      -2.06825724 Ry
     estimated scf accuracy    <       0.00000113 Ry

     iteration # 29     ecut=     5.00 Ry     beta= 0.70
     Davidson diagonalization with overlap

---- Real-time Memory Report at c_bands before calling an iterative solver
            58 MiB given to the printing process from OS
             0 MiB allocation reported by mallinfo(arena+hblkhd)
           104 MiB available memory on the node where the printing process lives
------------------
     ethr =  1.75E-08,  avg # of iterations =  3.0

     negative rho (up, down):  3.730E-01 0.000E+00

     total cpu time spent up to now is        3.3 secs

     total energy              =      -2.06825648 Ry
     estimated scf accuracy    <       0.00000081 Ry

     iteration # 30     ecut=     5.00 Ry     beta= 0.70
     Davidson diagonalization with overlap

---- Real-time Memory Report at c_bands before calling an iterative solver
            58 MiB given to the printing process from OS
             0 MiB allocation reported by mallinfo(arena+hblkhd)
           104 MiB available memory on the node where the printing process lives
------------------
     ethr =  1.75E-08,  avg # of iterations =  3.0

     negative rho (up, down):  3.730E-01 0.000E+00

     total cpu time spent up to now is        3.3 secs

     total energy              =      -2.06830508 Ry
     estimated scf accuracy    <       0.00000051 Ry

     iteration # 31     ecut=     5.00 Ry     beta= 0.70
     Davidson diagonalization with overlap

---- Real-time Memory Report at c_bands before calling an iterative solver
            58 MiB given to the printing process from OS
             0 MiB allocation reported by mallinfo(arena+hblkhd)
           104 MiB available memory on the node where the printing process lives
------------------
     ethr =  1.75E-08,  avg # of iterations =  3.0

     negative rho (up, down):  3.730E-01 0.000E+00

     total cpu time spent up to now is        3.4 secs

     total energy              =      -2.06824348 Ry
     estimated scf accuracy    <       0.00000008 Ry

     iteration # 32     ecut=     5.00 Ry     beta= 0.70
     Davidson diagonalization with overlap

---- Real-time Memory Report at c_bands before calling an iterative solver
            58 MiB given to the printing process from OS
             0 MiB allocation reported by mallinfo(arena+hblkhd)
           104 MiB available memory on the node where the printing process lives
------------------
     ethr =  4.09E-09,  avg # of iterations =  4.0

     negative rho (up, down):  3.730E-01 0.000E+00

     total cpu time spent up to now is        3.5 secs

     total energy              =      -2.06824237 Ry
     estimated scf accuracy    <       0.00000032 Ry

     iteration # 33     ecut=     5.00 Ry     beta= 0.70
     Davidson diagonalization with overlap

---- Real-time Memory Report at c_bands before calling an iterative solver
            58 MiB given to the printing process from OS
             0 MiB allocation reported by mallinfo(arena+hblkhd)
           104 MiB available memory on the node where the printing process lives
------------------
     ethr =  4.09E-09,  avg # of iterations =  4.0

     negative rho (up, down):  3.730E-01 0.000E+00

     total cpu time spent up to now is        3.6 secs

     total energy              =      -2.06827644 Ry
     estimated scf accuracy    <       0.00000017 Ry

     iteration # 34     ecut=     5.00 Ry     beta= 0.70
     Davidson diagonalization with overlap

---- Real-time Memory Report at c_bands before calling an iterative solver
            58 MiB given to the printing process from OS
             0 MiB allocation reported by mallinfo(arena+hblkhd)
           104 MiB available memory on the node where the printing process lives
------------------
     ethr =  4.09E-09,  avg # of iterations =  4.0

     negative rho (up, down):  3.730E-01 0.000E+00

     total cpu time spent up to now is        3.7 secs

     total energy              =      -2.06821362 Ry
     estimated scf accuracy    <       0.00000004 Ry

     iteration # 35     ecut=     5.00 Ry     beta= 0.70
     Davidson diagonalization with overlap

---- Real-time Memory Report at c_bands before calling an iterative solver
            58 MiB given to the printing process from OS
             0 MiB allocation reported by mallinfo(arena+hblkhd)
           104 MiB available memory on the node where the printing process lives
------------------
     ethr =  1.95E-09,  avg # of iterations =  5.0

     negative rho (up, down):  3.730E-01 0.000E+00

     total cpu time spent up to now is        3.7 secs

     total energy              =      -2.06824898 Ry
     estimated scf accuracy    <       0.00000011 Ry

     iteration # 36     ecut=     5.00 Ry     beta= 0.70
     Davidson diagonalization with overlap

---- Real-time Memory Report at c_bands before calling an iterative solver
            58 MiB given to the printing process from OS
             0 MiB allocation reported by mallinfo(arena+hblkhd)
           104 MiB available memory on the node where the printing process lives
------------------
     ethr =  1.95E-09,  avg # of iterations =  3.0

     negative rho (up, down):  3.730E-01 0.000E+00

     total cpu time spent up to now is        3.8 secs

     total energy              =      -2.06829757 Ry
     estimated scf accuracy    <       0.00000015 Ry

     iteration # 37     ecut=     5.00 Ry     beta= 0.70
     Davidson diagonalization with overlap

---- Real-time Memory Report at c_bands before calling an iterative solver
            58 MiB given to the printing process from OS
             0 MiB allocation reported by mallinfo(arena+hblkhd)
           104 MiB available memory on the node where the printing process lives
------------------
     ethr =  1.95E-09,  avg # of iterations =  4.0

     negative rho (up, down):  3.729E-01 0.000E+00

     total cpu time spent up to now is        3.9 secs

     total energy              =      -2.06826126 Ry
     estimated scf accuracy    <       0.00000016 Ry

     iteration # 38     ecut=     5.00 Ry     beta= 0.70
     Davidson diagonalization with overlap

---- Real-time Memory Report at c_bands before calling an iterative solver
            58 MiB given to the printing process from OS
             0 MiB allocation reported by mallinfo(arena+hblkhd)
           104 MiB available memory on the node where the printing process lives
------------------
     ethr =  1.95E-09,  avg # of iterations =  4.0

     negative rho (up, down):  3.729E-01 0.000E+00

     total cpu time spent up to now is        4.0 secs

     total energy              =      -2.06828255 Ry
     estimated scf accuracy    <       0.00000019 Ry

     iteration # 39     ecut=     5.00 Ry     beta= 0.70
     Davidson diagonalization with overlap

---- Real-time Memory Report at c_bands before calling an iterative solver
            58 MiB given to the printing process from OS
             0 MiB allocation reported by mallinfo(arena+hblkhd)
           104 MiB available memory on the node where the printing process lives
------------------
     ethr =  1.95E-09,  avg # of iterations =  4.0

     negative rho (up, down):  3.729E-01 0.000E+00

     total cpu time spent up to now is        4.0 secs

     total energy              =      -2.06825536 Ry
     estimated scf accuracy    <       0.00000007 Ry

     iteration # 40     ecut=     5.00 Ry     beta= 0.70
     Davidson diagonalization with overlap

---- Real-time Memory Report at c_bands before calling an iterative solver
            58 MiB given to the printing process from OS
             0 MiB allocation reported by mallinfo(arena+hblkhd)
           104 MiB available memory on the node where the printing process lives
------------------
     ethr =  1.95E-09,  avg # of iterations =  4.0

     negative rho (up, down):  3.731E-01 0.000E+00

     total cpu time spent up to now is        4.1 secs

     total energy              =      -2.06824019 Ry
     estimated scf accuracy    <       0.00000018 Ry

     iteration # 41     ecut=     5.00 Ry     beta= 0.70
     Davidson diagonalization with overlap

---- Real-time Memory Report at c_bands before calling an iterative solver
            58 MiB given to the printing process from OS
             0 MiB allocation reported by mallinfo(arena+hblkhd)
           104 MiB available memory on the node where the printing process lives
------------------
     ethr =  1.95E-09,  avg # of iterations =  4.0

     negative rho (up, down):  3.730E-01 0.000E+00

     total cpu time spent up to now is        4.2 secs

     total energy              =      -2.06829257 Ry
     estimated scf accuracy    <       0.00000049 Ry

     iteration # 42     ecut=     5.00 Ry     beta= 0.70
     Davidson diagonalization with overlap

---- Real-time Memory Report at c_bands before calling an iterative solver
            58 MiB given to the printing process from OS
             0 MiB allocation reported by mallinfo(arena+hblkhd)
           104 MiB available memory on the node where the printing process lives
------------------
     ethr =  1.95E-09,  avg # of iterations =  4.0

     negative rho (up, down):  3.729E-01 0.000E+00

     total cpu time spent up to now is        4.3 secs

     total energy              =      -2.06829485 Ry
     estimated scf accuracy    <       0.00000006 Ry

     iteration # 43     ecut=     5.00 Ry     beta= 0.70
     Davidson diagonalization with overlap

---- Real-time Memory Report at c_bands before calling an iterative solver
            58 MiB given to the printing process from OS
             0 MiB allocation reported by mallinfo(arena+hblkhd)
           104 MiB available memory on the node where the printing process lives
------------------
     ethr =  1.95E-09,  avg # of iterations =  3.0

     negative rho (up, down):  3.729E-01 0.000E+00

     total cpu time spent up to now is        4.3 secs

     total energy              =      -2.06828728 Ry
     estimated scf accuracy    <       0.00000003 Ry

     iteration # 44     ecut=     5.00 Ry     beta= 0.70
     Davidson diagonalization with overlap

---- Real-time Memory Report at c_bands before calling an iterative solver
            58 MiB given to the printing process from OS
             0 MiB allocation reported by mallinfo(arena+hblkhd)
           104 MiB available memory on the node where the printing process lives
------------------
     ethr =  1.39E-09,  avg # of iterations =  3.0

     negative rho (up, down):  3.730E-01 0.000E+00

     total cpu time spent up to now is        4.4 secs

     total energy              =      -2.06823299 Ry
     estimated scf accuracy    <       0.00000003 Ry

     iteration # 45     ecut=     5.00 Ry     beta= 0.70
     Davidson diagonalization with overlap

---- Real-time Memory Report at c_bands before calling an iterative solver
            58 MiB given to the printing process from OS
             0 MiB allocation reported by mallinfo(arena+hblkhd)
           104 MiB available memory on the node where the printing process lives
------------------
     ethr =  1.39E-09,  avg # of iterations =  4.0

     negative rho (up, down):  3.730E-01 0.000E+00

     total cpu time spent up to now is        4.5 secs

     total energy              =      -2.06821096 Ry
     estimated scf accuracy    <       0.00000009 Ry

     iteration # 46     ecut=     5.00 Ry     beta= 0.70
     Davidson diagonalization with overlap

---- Real-time Memory Report at c_bands before calling an iterative solver
            58 MiB given to the printing process from OS
             0 MiB allocation reported by mallinfo(arena+hblkhd)
           104 MiB available memory on the node where the printing process lives
------------------
     ethr =  1.39E-09,  avg # of iterations =  4.0

     negative rho (up, down):  3.730E-01 0.000E+00

     total cpu time spent up to now is        4.6 secs

     total energy              =      -2.06826681 Ry
     estimated scf accuracy    <       0.00000006 Ry

     iteration # 47     ecut=     5.00 Ry     beta= 0.70
     Davidson diagonalization with overlap

---- Real-time Memory Report at c_bands before calling an iterative solver
            58 MiB given to the printing process from OS
             0 MiB allocation reported by mallinfo(arena+hblkhd)
           104 MiB available memory on the node where the printing process lives
------------------
     ethr =  1.39E-09,  avg # of iterations =  3.0

     negative rho (up, down):  3.730E-01 0.000E+00

     total cpu time spent up to now is        4.7 secs

     total energy              =      -2.06821125 Ry
     estimated scf accuracy    <       0.00000009 Ry

     iteration # 48     ecut=     5.00 Ry     beta= 0.70
     Davidson diagonalization with overlap

---- Real-time Memory Report at c_bands before calling an iterative solver
            58 MiB given to the printing process from OS
             0 MiB allocation reported by mallinfo(arena+hblkhd)
           104 MiB available memory on the node where the printing process lives
------------------
     ethr =  1.39E-09,  avg # of iterations =  3.0

     negative rho (up, down):  3.731E-01 0.000E+00

     total cpu time spent up to now is        4.8 secs

     total energy              =      -2.06819539 Ry
     estimated scf accuracy    <       0.00000006 Ry

     iteration # 49     ecut=     5.00 Ry     beta= 0.70
     Davidson diagonalization with overlap

---- Real-time Memory Report at c_bands before calling an iterative solver
            58 MiB given to the printing process from OS
             0 MiB allocation reported by mallinfo(arena+hblkhd)
           104 MiB available memory on the node where the printing process lives
------------------
     ethr =  1.39E-09,  avg # of iterations =  2.0

     negative rho (up, down):  3.731E-01 0.000E+00

     total cpu time spent up to now is        4.8 secs

     total energy              =      -2.06820063 Ry
     estimated scf accuracy    <       0.00000012 Ry

     iteration # 50     ecut=     5.00 Ry     beta= 0.70
     Davidson diagonalization with overlap

---- Real-time Memory Report at c_bands before calling an iterative solver
            58 MiB given to the printing process from OS
             0 MiB allocation reported by mallinfo(arena+hblkhd)
           104 MiB available memory on the node where the printing process lives
------------------
     ethr =  1.39E-09,  avg # of iterations =  2.0

     negative rho (up, down):  3.729E-01 0.000E+00

     total cpu time spent up to now is        4.9 secs

     total energy              =      -2.06828527 Ry
     estimated scf accuracy    <       0.00000009 Ry

     iteration # 51     ecut=     5.00 Ry     beta= 0.70
     Davidson diagonalization with overlap

---- Real-time Memory Report at c_bands before calling an iterative solver
            58 MiB given to the printing process from OS
             0 MiB allocation reported by mallinfo(arena+hblkhd)
           104 MiB available memory on the node where the printing process lives
------------------
     ethr =  1.39E-09,  avg # of iterations =  4.0

     negative rho (up, down):  3.730E-01 0.000E+00

     total cpu time spent up to now is        5.0 secs

     total energy              =      -2.06824716 Ry
     estimated scf accuracy    <       0.00000004 Ry

     iteration # 52     ecut=     5.00 Ry     beta= 0.70
     Davidson diagonalization with overlap

---- Real-time Memory Report at c_bands before calling an iterative solver
            58 MiB given to the printing process from OS
             0 MiB allocation reported by mallinfo(arena+hblkhd)
           104 MiB available memory on the node where the printing process lives
------------------
     ethr =  1.39E-09,  avg # of iterations =  4.0

     negative rho (up, down):  3.729E-01 0.000E+00

     total cpu time spent up to now is        5.1 secs

     total energy              =      -2.06830653 Ry
     estimated scf accuracy    <       0.00000014 Ry

     iteration # 53     ecut=     5.00 Ry     beta= 0.70
     Davidson diagonalization with overlap

---- Real-time Memory Report at c_bands before calling an iterative solver
            58 MiB given to the printing process from OS
             0 MiB allocation reported by mallinfo(arena+hblkhd)
           104 MiB available memory on the node where the printing process lives
------------------
     ethr =  1.39E-09,  avg # of iterations =  4.0

     negative rho (up, down):  3.729E-01 0.000E+00

     total cpu time spent up to now is        5.1 secs

     total energy              =      -2.06831503 Ry
     estimated scf accuracy    <       0.00000003 Ry

     iteration # 54     ecut=     5.00 Ry     beta= 0.70
     Davidson diagonalization with overlap

---- Real-time Memory Report at c_bands before calling an iterative solver
            58 MiB given to the printing process from OS
             0 MiB allocation reported by mallinfo(arena+hblkhd)
           104 MiB available memory on the node where the printing process lives
------------------
     ethr =  1.39E-09,  avg # of iterations =  3.0

     negative rho (up, down):  3.730E-01 0.000E+00

     total cpu time spent up to now is        5.2 secs

     total energy              =      -2.06825886 Ry
     estimated scf accuracy    <       0.00000008 Ry

     iteration # 55     ecut=     5.00 Ry     beta= 0.70
     Davidson diagonalization with overlap

---- Real-time Memory Report at c_bands before calling an iterative solver
            58 MiB given to the printing process from OS
             0 MiB allocation reported by mallinfo(arena+hblkhd)
           104 MiB available memory on the node where the printing process lives
------------------
     ethr =  1.39E-09,  avg # of iterations =  4.0

     negative rho (up, down):  3.730E-01 0.000E+00

     total cpu time spent up to now is        5.3 secs

     total energy              =      -2.06821660 Ry
     estimated scf accuracy    <       0.00000008 Ry

     iteration # 56     ecut=     5.00 Ry     beta= 0.70
     Davidson diagonalization with overlap

---- Real-time Memory Report at c_bands before calling an iterative solver
            58 MiB given to the printing process from OS
             0 MiB allocation reported by mallinfo(arena+hblkhd)
           104 MiB available memory on the node where the printing process lives
------------------
     ethr =  1.39E-09,  avg # of iterations =  4.0

     negative rho (up, down):  3.730E-01 0.000E+00

     total cpu time spent up to now is        5.4 secs

     total energy              =      -2.06823864 Ry
     estimated scf accuracy    <       0.00000005 Ry

     iteration # 57     ecut=     5.00 Ry     beta= 0.70
     Davidson diagonalization with overlap

---- Real-time Memory Report at c_bands before calling an iterative solver
            58 MiB given to the printing process from OS
             0 MiB allocation reported by mallinfo(arena+hblkhd)
           104 MiB available memory on the node where the printing process lives
------------------
     ethr =  1.39E-09,  avg # of iterations =  4.0

     negative rho (up, down):  3.730E-01 0.000E+00

     total cpu time spent up to now is        5.4 secs

     total energy              =      -2.06827257 Ry
     estimated scf accuracy    <       0.00000011 Ry

     iteration # 58     ecut=     5.00 Ry     beta= 0.70
     Davidson diagonalization with overlap

---- Real-time Memory Report at c_bands before calling an iterative solver
            58 MiB given to the printing process from OS
             0 MiB allocation reported by mallinfo(arena+hblkhd)
           104 MiB available memory on the node where the printing process lives
------------------
     ethr =  1.39E-09,  avg # of iterations =  2.0

     negative rho (up, down):  3.730E-01 0.000E+00

     total cpu time spent up to now is        5.5 secs

     total energy              =      -2.06821843 Ry
     estimated scf accuracy    <       0.00000010 Ry

     iteration # 59     ecut=     5.00 Ry     beta= 0.70
     Davidson diagonalization with overlap

---- Real-time Memory Report at c_bands before calling an iterative solver
            58 MiB given to the printing process from OS
             0 MiB allocation reported by mallinfo(arena+hblkhd)
           104 MiB available memory on the node where the printing process lives
------------------
     ethr =  1.39E-09,  avg # of iterations =  3.0

     negative rho (up, down):  3.730E-01 0.000E+00

     total cpu time spent up to now is        5.6 secs

     total energy              =      -2.06830275 Ry
     estimated scf accuracy    <       0.00000005 Ry

     iteration # 60     ecut=     5.00 Ry     beta= 0.70
     Davidson diagonalization with overlap

---- Real-time Memory Report at c_bands before calling an iterative solver
            58 MiB given to the printing process from OS
             0 MiB allocation reported by mallinfo(arena+hblkhd)
           104 MiB available memory on the node where the printing process lives
------------------
     ethr =  1.39E-09,  avg # of iterations =  4.0

     negative rho (up, down):  3.730E-01 0.000E+00

     total cpu time spent up to now is        5.7 secs

     total energy              =      -2.06820549 Ry
     estimated scf accuracy    <       0.00000007 Ry

     iteration # 61     ecut=     5.00 Ry     beta= 0.70
     Davidson diagonalization with overlap

---- Real-time Memory Report at c_bands before calling an iterative solver
            58 MiB given to the printing process from OS
             0 MiB allocation reported by mallinfo(arena+hblkhd)
           104 MiB available memory on the node where the printing process lives
------------------
     ethr =  1.39E-09,  avg # of iterations =  4.0

     negative rho (up, down):  3.730E-01 0.000E+00

     total cpu time spent up to now is        5.8 secs

     total energy              =      -2.06821050 Ry
     estimated scf accuracy    <       0.00000006 Ry

     iteration # 62     ecut=     5.00 Ry     beta= 0.70
     Davidson diagonalization with overlap

---- Real-time Memory Report at c_bands before calling an iterative solver
            58 MiB given to the printing process from OS
             0 MiB allocation reported by mallinfo(arena+hblkhd)
           104 MiB available memory on the node where the printing process lives
------------------
     ethr =  1.39E-09,  avg # of iterations =  1.0

     negative rho (up, down):  3.730E-01 0.000E+00

     total cpu time spent up to now is        5.8 secs

     total energy              =      -2.06821396 Ry
     estimated scf accuracy    <       0.00000008 Ry

     iteration # 63     ecut=     5.00 Ry     beta= 0.70
     Davidson diagonalization with overlap

---- Real-time Memory Report at c_bands before calling an iterative solver
            58 MiB given to the printing process from OS
             0 MiB allocation reported by mallinfo(arena+hblkhd)
           104 MiB available memory on the node where the printing process lives
------------------
     ethr =  1.39E-09,  avg # of iterations =  1.0

     negative rho (up, down):  3.729E-01 0.000E+00

     total cpu time spent up to now is        5.9 secs

     total energy              =      -2.06826622 Ry
     estimated scf accuracy    <       0.00000010 Ry

     iteration # 64     ecut=     5.00 Ry     beta= 0.70
     Davidson diagonalization with overlap

---- Real-time Memory Report at c_bands before calling an iterative solver
            58 MiB given to the printing process from OS
             0 MiB allocation reported by mallinfo(arena+hblkhd)
           104 MiB available memory on the node where the printing process lives
------------------
     ethr =  1.39E-09,  avg # of iterations =  4.0

     negative rho (up, down):  3.729E-01 0.000E+00

     total cpu time spent up to now is        6.0 secs

     total energy              =      -2.06828110 Ry
     estimated scf accuracy    <       0.00000022 Ry

     iteration # 65     ecut=     5.00 Ry     beta= 0.70
     Davidson diagonalization with overlap

---- Real-time Memory Report at c_bands before calling an iterative solver
            58 MiB given to the printing process from OS
             0 MiB allocation reported by mallinfo(arena+hblkhd)
           104 MiB available memory on the node where the printing process lives
------------------
     ethr =  1.39E-09,  avg # of iterations =  4.0

     negative rho (up, down):  3.729E-01 0.000E+00

     total cpu time spent up to now is        6.0 secs

     total energy              =      -2.06824495 Ry
     estimated scf accuracy    <       0.00000071 Ry

     iteration # 66     ecut=     5.00 Ry     beta= 0.70
     Davidson diagonalization with overlap

---- Real-time Memory Report at c_bands before calling an iterative solver
            58 MiB given to the printing process from OS
             0 MiB allocation reported by mallinfo(arena+hblkhd)
           104 MiB available memory on the node where the printing process lives
------------------
     ethr =  1.39E-09,  avg # of iterations =  4.0

     negative rho (up, down):  3.730E-01 0.000E+00

     total cpu time spent up to now is        6.1 secs

     total energy              =      -2.06826617 Ry
     estimated scf accuracy    <       0.00000015 Ry

     iteration # 67     ecut=     5.00 Ry     beta= 0.70
     Davidson diagonalization with overlap

---- Real-time Memory Report at c_bands before calling an iterative solver
            58 MiB given to the printing process from OS
             0 MiB allocation reported by mallinfo(arena+hblkhd)
           104 MiB available memory on the node where the printing process lives
------------------
     ethr =  1.39E-09,  avg # of iterations =  3.0

     negative rho (up, down):  3.730E-01 0.000E+00

     total cpu time spent up to now is        6.2 secs

     total energy              =      -2.06824476 Ry
     estimated scf accuracy    <       0.00000009 Ry

     iteration # 68     ecut=     5.00 Ry     beta= 0.70
     Davidson diagonalization with overlap

---- Real-time Memory Report at c_bands before calling an iterative solver
            58 MiB given to the printing process from OS
             0 MiB allocation reported by mallinfo(arena+hblkhd)
           104 MiB available memory on the node where the printing process lives
------------------
     ethr =  1.39E-09,  avg # of iterations =  2.0

     negative rho (up, down):  3.730E-01 0.000E+00

     total cpu time spent up to now is        6.3 secs

     total energy              =      -2.06826595 Ry
     estimated scf accuracy    <       0.00000012 Ry

     iteration # 69     ecut=     5.00 Ry     beta= 0.70
     Davidson diagonalization with overlap

---- Real-time Memory Report at c_bands before calling an iterative solver
            58 MiB given to the printing process from OS
             0 MiB allocation reported by mallinfo(arena+hblkhd)
           104 MiB available memory on the node where the printing process lives
------------------
     ethr =  1.39E-09,  avg # of iterations =  2.0

     negative rho (up, down):  3.727E-01 0.000E+00

     total cpu time spent up to now is        6.3 secs

     total energy              =      -2.06843479 Ry
     estimated scf accuracy    <       0.00000009 Ry

     iteration # 70     ecut=     5.00 Ry     beta= 0.70
     Davidson diagonalization with overlap

---- Real-time Memory Report at c_bands before calling an iterative solver
            58 MiB given to the printing process from OS
             0 MiB allocation reported by mallinfo(arena+hblkhd)
           104 MiB available memory on the node where the printing process lives
------------------
     ethr =  1.39E-09,  avg # of iterations =  6.0

     negative rho (up, down):  3.726E-01 0.000E+00

     total cpu time spent up to now is        6.4 secs

     total energy              =      -2.06840574 Ry
     estimated scf accuracy    <       0.00000525 Ry

     iteration # 71     ecut=     5.00 Ry     beta= 0.70
     Davidson diagonalization with overlap

---- Real-time Memory Report at c_bands before calling an iterative solver
            58 MiB given to the printing process from OS
             0 MiB allocation reported by mallinfo(arena+hblkhd)
           104 MiB available memory on the node where the printing process lives
------------------
     ethr =  1.39E-09,  avg # of iterations =  6.0

     negative rho (up, down):  3.732E-01 0.000E+00

     total cpu time spent up to now is        6.5 secs

     total energy              =      -2.06820552 Ry
     estimated scf accuracy    <       0.00000113 Ry

     iteration # 72     ecut=     5.00 Ry     beta= 0.70
     Davidson diagonalization with overlap

---- Real-time Memory Report at c_bands before calling an iterative solver
            58 MiB given to the printing process from OS
             0 MiB allocation reported by mallinfo(arena+hblkhd)
           104 MiB available memory on the node where the printing process lives
------------------
     ethr =  1.39E-09,  avg # of iterations =  4.0

     negative rho (up, down):  3.730E-01 0.000E+00

     total cpu time spent up to now is        6.6 secs

     total energy              =      -2.06827682 Ry
     estimated scf accuracy    <       0.00000047 Ry

     iteration # 73     ecut=     5.00 Ry     beta= 0.70
     Davidson diagonalization with overlap

---- Real-time Memory Report at c_bands before calling an iterative solver
            58 MiB given to the printing process from OS
             0 MiB allocation reported by mallinfo(arena+hblkhd)
           104 MiB available memory on the node where the printing process lives
------------------
     ethr =  1.39E-09,  avg # of iterations =  4.0

     negative rho (up, down):  3.729E-01 0.000E+00

     total cpu time spent up to now is        6.7 secs

     total energy              =      -2.06830354 Ry
     estimated scf accuracy    <       0.00000041 Ry

     iteration # 74     ecut=     5.00 Ry     beta= 0.70
     Davidson diagonalization with overlap

---- Real-time Memory Report at c_bands before calling an iterative solver
            58 MiB given to the printing process from OS
             0 MiB allocation reported by mallinfo(arena+hblkhd)
           104 MiB available memory on the node where the printing process lives
------------------
     ethr =  1.39E-09,  avg # of iterations =  4.0

     negative rho (up, down):  3.730E-01 0.000E+00

     total cpu time spent up to now is        6.7 secs

     total energy              =      -2.06825677 Ry
     estimated scf accuracy    <       0.00000002 Ry

     iteration # 75     ecut=     5.00 Ry     beta= 0.70
     Davidson diagonalization with overlap

---- Real-time Memory Report at c_bands before calling an iterative solver
            58 MiB given to the printing process from OS
             0 MiB allocation reported by mallinfo(arena+hblkhd)
           104 MiB available memory on the node where the printing process lives
------------------
     ethr =  1.21E-09,  avg # of iterations =  4.0

     negative rho (up, down):  3.730E-01 0.000E+00

     total cpu time spent up to now is        6.8 secs

     total energy              =      -2.06830785 Ry
     estimated scf accuracy    <       0.00000046 Ry

     iteration # 76     ecut=     5.00 Ry     beta= 0.70
     Davidson diagonalization with overlap

---- Real-time Memory Report at c_bands before calling an iterative solver
            58 MiB given to the printing process from OS
             0 MiB allocation reported by mallinfo(arena+hblkhd)
           104 MiB available memory on the node where the printing process lives
------------------
     ethr =  1.21E-09,  avg # of iterations =  3.0

     negative rho (up, down):  3.730E-01 0.000E+00

     total cpu time spent up to now is        6.9 secs

     total energy              =      -2.06828083 Ry
     estimated scf accuracy    <       0.00000006 Ry

     iteration # 77     ecut=     5.00 Ry     beta= 0.70
     Davidson diagonalization with overlap

---- Real-time Memory Report at c_bands before calling an iterative solver
            58 MiB given to the printing process from OS
             0 MiB allocation reported by mallinfo(arena+hblkhd)
           104 MiB available memory on the node where the printing process lives
------------------
     ethr =  1.21E-09,  avg # of iterations =  2.0

     negative rho (up, down):  3.729E-01 0.000E+00

     total cpu time spent up to now is        7.0 secs

     total energy              =      -2.06828238 Ry
     estimated scf accuracy    <       0.00000004 Ry

     iteration # 78     ecut=     5.00 Ry     beta= 0.70
     Davidson diagonalization with overlap

---- Real-time Memory Report at c_bands before calling an iterative solver
            58 MiB given to the printing process from OS
             0 MiB allocation reported by mallinfo(arena+hblkhd)
           104 MiB available memory on the node where the printing process lives
------------------
     ethr =  1.21E-09,  avg # of iterations =  2.0

     negative rho (up, down):  3.730E-01 0.000E+00

     total cpu time spent up to now is        7.0 secs

     total energy              =      -2.06823934 Ry
     estimated scf accuracy    <       0.00000004 Ry

     iteration # 79     ecut=     5.00 Ry     beta= 0.70
     Davidson diagonalization with overlap

---- Real-time Memory Report at c_bands before calling an iterative solver
            58 MiB given to the printing process from OS
             0 MiB allocation reported by mallinfo(arena+hblkhd)
           104 MiB available memory on the node where the printing process lives
------------------
     ethr =  1.21E-09,  avg # of iterations =  4.0

     negative rho (up, down):  3.729E-01 0.000E+00

     total cpu time spent up to now is        7.1 secs

     total energy              =      -2.06826728 Ry
     estimated scf accuracy    <       0.00000011 Ry

     iteration # 80     ecut=     5.00 Ry     beta= 0.70
     Davidson diagonalization with overlap

---- Real-time Memory Report at c_bands before calling an iterative solver
            58 MiB given to the printing process from OS
             0 MiB allocation reported by mallinfo(arena+hblkhd)
           104 MiB available memory on the node where the printing process lives
------------------
     ethr =  1.21E-09,  avg # of iterations =  4.0

     negative rho (up, down):  3.729E-01 0.000E+00

     total cpu time spent up to now is        7.2 secs

     total energy              =      -2.06826904 Ry
     estimated scf accuracy    <       0.00000026 Ry

     iteration # 81     ecut=     5.00 Ry     beta= 0.70
     Davidson diagonalization with overlap

---- Real-time Memory Report at c_bands before calling an iterative solver
            58 MiB given to the printing process from OS
             0 MiB allocation reported by mallinfo(arena+hblkhd)
           104 MiB available memory on the node where the printing process lives
------------------
     ethr =  1.21E-09,  avg # of iterations =  2.0

     negative rho (up, down):  3.730E-01 0.000E+00

     total cpu time spent up to now is        7.2 secs

     total energy              =      -2.06820052 Ry
     estimated scf accuracy    <       0.00000030 Ry

     iteration # 82     ecut=     5.00 Ry     beta= 0.70
     Davidson diagonalization with overlap

---- Real-time Memory Report at c_bands before calling an iterative solver
            58 MiB given to the printing process from OS
             0 MiB allocation reported by mallinfo(arena+hblkhd)
           104 MiB available memory on the node where the printing process lives
------------------
     ethr =  1.21E-09,  avg # of iterations =  4.0

     negative rho (up, down):  3.730E-01 0.000E+00

     total cpu time spent up to now is        7.3 secs

     total energy              =      -2.06820098 Ry
     estimated scf accuracy    <       0.00000008 Ry

     iteration # 83     ecut=     5.00 Ry     beta= 0.70
     Davidson diagonalization with overlap

---- Real-time Memory Report at c_bands before calling an iterative solver
            58 MiB given to the printing process from OS
             0 MiB allocation reported by mallinfo(arena+hblkhd)
           104 MiB available memory on the node where the printing process lives
------------------
     ethr =  1.21E-09,  avg # of iterations =  2.0

     negative rho (up, down):  3.730E-01 0.000E+00

     total cpu time spent up to now is        7.4 secs

     total energy              =      -2.06821044 Ry
     estimated scf accuracy    <       0.00000009 Ry

     iteration # 84     ecut=     5.00 Ry     beta= 0.70
     Davidson diagonalization with overlap

---- Real-time Memory Report at c_bands before calling an iterative solver
            58 MiB given to the printing process from OS
             0 MiB allocation reported by mallinfo(arena+hblkhd)
           104 MiB available memory on the node where the printing process lives
------------------
     ethr =  1.21E-09,  avg # of iterations =  2.0

     negative rho (up, down):  3.730E-01 0.000E+00

     total cpu time spent up to now is        7.5 secs

     total energy              =      -2.06820962 Ry
     estimated scf accuracy    <       0.00000004 Ry

     iteration # 85     ecut=     5.00 Ry     beta= 0.70
     Davidson diagonalization with overlap

---- Real-time Memory Report at c_bands before calling an iterative solver
            58 MiB given to the printing process from OS
             0 MiB allocation reported by mallinfo(arena+hblkhd)
           104 MiB available memory on the node where the printing process lives
------------------
     ethr =  1.21E-09,  avg # of iterations =  2.0

     negative rho (up, down):  3.730E-01 0.000E+00

     total cpu time spent up to now is        7.5 secs

     total energy              =      -2.06821030 Ry
     estimated scf accuracy    <       0.00000005 Ry

     iteration # 86     ecut=     5.00 Ry     beta= 0.70
     Davidson diagonalization with overlap

---- Real-time Memory Report at c_bands before calling an iterative solver
            58 MiB given to the printing process from OS
             0 MiB allocation reported by mallinfo(arena+hblkhd)
           104 MiB available memory on the node where the printing process lives
------------------
     ethr =  1.21E-09,  avg # of iterations =  1.0

     negative rho (up, down):  3.730E-01 0.000E+00

     total cpu time spent up to now is        7.6 secs

     total energy              =      -2.06825500 Ry
     estimated scf accuracy    <       0.00000004 Ry

     iteration # 87     ecut=     5.00 Ry     beta= 0.70
     Davidson diagonalization with overlap

---- Real-time Memory Report at c_bands before calling an iterative solver
            58 MiB given to the printing process from OS
             0 MiB allocation reported by mallinfo(arena+hblkhd)
           104 MiB available memory on the node where the printing process lives
------------------
     ethr =  1.21E-09,  avg # of iterations =  3.0

     negative rho (up, down):  3.729E-01 0.000E+00

     total cpu time spent up to now is        7.7 secs

     total energy              =      -2.06830967 Ry
     estimated scf accuracy    <       0.00000010 Ry

     iteration # 88     ecut=     5.00 Ry     beta= 0.70
     Davidson diagonalization with overlap

---- Real-time Memory Report at c_bands before calling an iterative solver
            58 MiB given to the printing process from OS
             0 MiB allocation reported by mallinfo(arena+hblkhd)
           104 MiB available memory on the node where the printing process lives
------------------
     ethr =  1.21E-09,  avg # of iterations =  4.0

     negative rho (up, down):  3.730E-01 0.000E+00

     total cpu time spent up to now is        7.8 secs

     total energy              =      -2.06830988 Ry
     estimated scf accuracy    <       0.00000034 Ry

     iteration # 89     ecut=     5.00 Ry     beta= 0.70
     Davidson diagonalization with overlap

---- Real-time Memory Report at c_bands before calling an iterative solver
            58 MiB given to the printing process from OS
             0 MiB allocation reported by mallinfo(arena+hblkhd)
           104 MiB available memory on the node where the printing process lives
------------------
     ethr =  1.21E-09,  avg # of iterations =  4.0

     negative rho (up, down):  3.729E-01 0.000E+00

     total cpu time spent up to now is        7.8 secs

     total energy              =      -2.06831946 Ry
     estimated scf accuracy    <       0.00000020 Ry

     iteration # 90     ecut=     5.00 Ry     beta= 0.70
     Davidson diagonalization with overlap

---- Real-time Memory Report at c_bands before calling an iterative solver
            58 MiB given to the printing process from OS
             0 MiB allocation reported by mallinfo(arena+hblkhd)
           104 MiB available memory on the node where the printing process lives
------------------
     ethr =  1.21E-09,  avg # of iterations =  2.0

     negative rho (up, down):  3.729E-01 0.000E+00

     total cpu time spent up to now is        7.9 secs

     total energy              =      -2.06832346 Ry
     estimated scf accuracy    <       0.00000019 Ry

     iteration # 91     ecut=     5.00 Ry     beta= 0.70
     Davidson diagonalization with overlap

---- Real-time Memory Report at c_bands before calling an iterative solver
            58 MiB given to the printing process from OS
             0 MiB allocation reported by mallinfo(arena+hblkhd)
           104 MiB available memory on the node where the printing process lives
------------------
     ethr =  1.21E-09,  avg # of iterations =  3.0

     negative rho (up, down):  3.730E-01 0.000E+00

     total cpu time spent up to now is        8.0 secs

     total energy              =      -2.06825756 Ry
     estimated scf accuracy    <       0.00000008 Ry

     iteration # 92     ecut=     5.00 Ry     beta= 0.70
     Davidson diagonalization with overlap

---- Real-time Memory Report at c_bands before calling an iterative solver
            58 MiB given to the printing process from OS
             0 MiB allocation reported by mallinfo(arena+hblkhd)
           104 MiB available memory on the node where the printing process lives
------------------
     ethr =  1.21E-09,  avg # of iterations =  4.0

     negative rho (up, down):  3.730E-01 0.000E+00

     total cpu time spent up to now is        8.1 secs

     total energy              =      -2.06825107 Ry
     estimated scf accuracy    <       0.00000063 Ry

     iteration # 93     ecut=     5.00 Ry     beta= 0.70
     Davidson diagonalization with overlap

---- Real-time Memory Report at c_bands before calling an iterative solver
            58 MiB given to the printing process from OS
             0 MiB allocation reported by mallinfo(arena+hblkhd)
           104 MiB available memory on the node where the printing process lives
------------------
     ethr =  1.21E-09,  avg # of iterations =  2.0

     negative rho (up, down):  3.730E-01 0.000E+00

     total cpu time spent up to now is        8.1 secs

     total energy              =      -2.06826033 Ry
     estimated scf accuracy    <       0.00000058 Ry

     iteration # 94     ecut=     5.00 Ry     beta= 0.70
     Davidson diagonalization with overlap

---- Real-time Memory Report at c_bands before calling an iterative solver
            58 MiB given to the printing process from OS
             0 MiB allocation reported by mallinfo(arena+hblkhd)
           104 MiB available memory on the node where the printing process lives
------------------
     ethr =  1.21E-09,  avg # of iterations =  2.0

     negative rho (up, down):  3.730E-01 0.000E+00

     total cpu time spent up to now is        8.2 secs

     total energy              =      -2.06825799 Ry
     estimated scf accuracy    <       0.00000065 Ry

     iteration # 95     ecut=     5.00 Ry     beta= 0.70
     Davidson diagonalization with overlap

---- Real-time Memory Report at c_bands before calling an iterative solver
            58 MiB given to the printing process from OS
             0 MiB allocation reported by mallinfo(arena+hblkhd)
           104 MiB available memory on the node where the printing process lives
------------------
     ethr =  1.21E-09,  avg # of iterations =  1.0

     negative rho (up, down):  3.730E-01 0.000E+00

     total cpu time spent up to now is        8.3 secs

     total energy              =      -2.06825734 Ry
     estimated scf accuracy    <       0.00000058 Ry

     iteration # 96     ecut=     5.00 Ry     beta= 0.70
     Davidson diagonalization with overlap

---- Real-time Memory Report at c_bands before calling an iterative solver
            58 MiB given to the printing process from OS
             0 MiB allocation reported by mallinfo(arena+hblkhd)
           104 MiB available memory on the node where the printing process lives
------------------
     ethr =  1.21E-09,  avg # of iterations =  1.0

     negative rho (up, down):  3.730E-01 0.000E+00

     total cpu time spent up to now is        8.3 secs

     total energy              =      -2.06821385 Ry
     estimated scf accuracy    <       0.00000059 Ry

     iteration # 97     ecut=     5.00 Ry     beta= 0.70
     Davidson diagonalization with overlap

---- Real-time Memory Report at c_bands before calling an iterative solver
            58 MiB given to the printing process from OS
             0 MiB allocation reported by mallinfo(arena+hblkhd)
           104 MiB available memory on the node where the printing process lives
------------------
     ethr =  1.21E-09,  avg # of iterations =  4.0

     negative rho (up, down):  3.729E-01 0.000E+00

     total cpu time spent up to now is        8.4 secs

     total energy              =      -2.06829618 Ry
     estimated scf accuracy    <       0.00000028 Ry

     iteration # 98     ecut=     5.00 Ry     beta= 0.70
     Davidson diagonalization with overlap

---- Real-time Memory Report at c_bands before calling an iterative solver
            58 MiB given to the printing process from OS
             0 MiB allocation reported by mallinfo(arena+hblkhd)
           104 MiB available memory on the node where the printing process lives
------------------
     ethr =  1.21E-09,  avg # of iterations =  5.0

     negative rho (up, down):  3.729E-01 0.000E+00

     total cpu time spent up to now is        8.5 secs

     total energy              =      -2.06828547 Ry
     estimated scf accuracy    <       0.00000116 Ry

     iteration # 99     ecut=     5.00 Ry     beta= 0.70
     Davidson diagonalization with overlap

---- Real-time Memory Report at c_bands before calling an iterative solver
            58 MiB given to the printing process from OS
             0 MiB allocation reported by mallinfo(arena+hblkhd)
           104 MiB available memory on the node where the printing process lives
------------------
     ethr =  1.21E-09,  avg # of iterations =  3.0

     negative rho (up, down):  3.729E-01 0.000E+00

     total cpu time spent up to now is        8.6 secs

     total energy              =      -2.06826327 Ry
     estimated scf accuracy    <       0.00000079 Ry

     iteration #100     ecut=     5.00 Ry     beta= 0.70
     Davidson diagonalization with overlap

---- Real-time Memory Report at c_bands before calling an iterative solver
            58 MiB given to the printing process from OS
             0 MiB allocation reported by mallinfo(arena+hblkhd)
           104 MiB available memory on the node where the printing process lives
------------------
     ethr =  1.21E-09,  avg # of iterations =  4.0

     negative rho (up, down):  3.730E-01 0.000E+00

     total cpu time spent up to now is        8.7 secs

     total energy              =      -2.06824888 Ry
     estimated scf accuracy    <       0.00000032 Ry

     End of self-consistent calculation

     convergence NOT achieved after 100 iterations: stopping

     Writing config to output data dir ./.save/
     Message from routine punch:
     wavefunctions written to file

     init_run     :      0.08s CPU      0.08s WALL (       1 calls)
     electrons    :      8.39s CPU      8.46s WALL (       2 calls)
     update_pot   :      0.07s CPU      0.07s WALL (       1 calls)
     forces       :      0.02s CPU      0.02s WALL (       1 calls)

     Called by init_run:
     wfcinit      :      0.00s CPU      0.01s WALL (       1 calls)
     wfcinit:atom :      0.00s CPU      0.00s WALL (       1 calls)
     wfcinit:wfcr :      0.00s CPU      0.00s WALL (       1 calls)
     potinit      :      0.05s CPU      0.05s WALL (       1 calls)
     hinit0       :      0.01s CPU      0.01s WALL (       1 calls)

     Called by electrons:
     c_bands      :      2.03s CPU      2.04s WALL (     109 calls)
     sum_band     :      0.85s CPU      0.86s WALL (     109 calls)
     v_of_rho     :      4.37s CPU      4.41s WALL (     111 calls)
     v_h          :      0.22s CPU      0.22s WALL (     111 calls)
     v_xc         :      4.15s CPU      4.18s WALL (     111 calls)
     newd         :      0.27s CPU      0.27s WALL (     111 calls)
     mix_rho      :      0.87s CPU      0.88s WALL (     109 calls)

     Called by c_bands:
     init_us_2    :      0.03s CPU      0.03s WALL (     219 calls)
     init_us_2:cp :      0.03s CPU      0.03s WALL (     219 calls)
     cegterg      :      2.01s CPU      2.02s WALL (     109 calls)

     Called by sum_band:
     sum_band:wei :      0.00s CPU      0.00s WALL (     109 calls)
     sum_band:loo :      0.24s CPU      0.25s WALL (     109 calls)
     sum_band:buf :      0.00s CPU      0.00s WALL (     109 calls)
     sum_band:ini :      0.01s CPU      0.01s WALL (     109 calls)
     sum_band:cal :      0.00s CPU      0.00s WALL (     109 calls)
     sum_band:bec :      0.00s CPU      0.00s WALL (     109 calls)
     addusdens    :      0.08s CPU      0.08s WALL (     109 calls)
     addusd:skk   :      0.03s CPU      0.03s WALL (     109 calls)
     addusd:dgemm :      0.02s CPU      0.02s WALL (     109 calls)
     addusd:qvan2 :      0.02s CPU      0.02s WALL (     109 calls)

     Called by *egterg:
     cdiaghg      :      0.01s CPU      0.01s WALL (     518 calls)
     cegterg:over :      0.03s CPU      0.03s WALL (     410 calls)
     cegterg:upda :      0.02s CPU      0.02s WALL (     410 calls)
     cegterg:last :      0.04s CPU      0.04s WALL (     350 calls)
     h_psi        :      1.86s CPU      1.87s WALL (     520 calls)
     s_psi        :      0.01s CPU      0.01s WALL (     520 calls)
     g_psi        :      0.01s CPU      0.01s WALL (     410 calls)

     Called by h_psi:
     h_psi:calbec :      0.01s CPU      0.01s WALL (     520 calls)
     vloc_psi     :      1.83s CPU      1.83s WALL (     520 calls)
     add_vuspsi   :      0.01s CPU      0.01s WALL (     520 calls)

     General routines
     calbec       :      0.02s CPU      0.02s WALL (     633 calls)
     fft          :      1.90s CPU      1.92s WALL (    1224 calls)
     ffts         :      0.17s CPU      0.17s WALL (     109 calls)
     fftw         :      1.90s CPU      1.91s WALL (    1932 calls)
     davcio       :      0.00s CPU      0.01s WALL (      19 calls)


     PWSCF        :      8.58s CPU      8.68s WALL


   This run was terminated on:   0:59: 3  28Feb2022            

=------------------------------------------------------------------------------=
   JOB DONE.
=------------------------------------------------------------------------------=
