
     Program PWSCF v.7.0 starts on 28Feb2022 at  3:52:46 

     This program is part of the open-source Quantum ESPRESSO suite
     for quantum simulation of materials; please cite
         "P. Giannozzi et al., J. Phys.:Condens. Matter 21 395502 (2009);
         "P. Giannozzi et al., J. Phys.:Condens. Matter 29 465901 (2017);
         "P. Giannozzi et al., J. Chem. Phys. 152 154105 (2020);
          URL http://www.quantum-espresso.org", 
     in publications or presentations arising from this work. More details at
     http://www.quantum-espresso.org/quote

     Serial version
     545 MiB available memory on the printing compute node when the environment starts

     Waiting for input...
     Reading input from standard input

     Current dimensions of program PWSCF are:
     Max number of different atomic species (ntypx) = 10
     Max number of k-points (npk) =  40000
     Max angular momentum in pseudopotentials (lmaxx) =  4

     File ./.update deleted, as requested

     File ./.bfgs deleted, as requested

    ============================================================
    |  pseudopotential report for atomic species:  1           |
    |        pseudo potential version   7   3   2              |
    ------------------------------------------------------------
    |  hydrogen            PBE                  exchange-corr  |
    |  z =   1.    zv( 1) =   1.    exfact =   5.00000         |
    |  ifpcor =  0           atomic energy =  -0.91772 Ry      |
    |  index    orbital      occupation    energy              |
    |    1        100           1.00       -0.48               |
    |  rinner =  0.5000                                        |
    |    new generation scheme:                                |
    |    nbeta =  1     kkbeta =  271     rcloc =    0.6000    |
    |    ibeta    l     epsilon   rcut                         |
    |      1       0      -0.48   0.80                         |
    ============================================================

     IMPORTANT: XC functional enforced from input :
     Exchange-correlation= BLYP
                           (   1   3   1   3   0   0   0)
     Any further DFT definition will be discarded
     Please, verify this is what you really want


     G-vector sticks info
     --------------------
     sticks:   dense  smooth     PW     G-vecs:    dense   smooth      PW
     Sum        7153    7153   1925               455863   455863   63461

     Using Slab Decomposition



     bravais-lattice index     =            1
     lattice parameter (alat)  =      30.0000  a.u.
     unit-cell volume          =   27000.0000 (a.u.)^3
     number of atoms/cell      =            2
     number of atomic types    =            1
     number of electrons       =         2.00
     number of Kohn-Sham states=            2
     kinetic-energy cutoff     =      25.0000  Ry
     charge density cutoff     =     100.0000  Ry
     scf convergence threshold =      1.0E-08
     mixing beta               =       0.7000
     number of iterations used =            8  plain     mixing
     energy convergence thresh.=      1.0E-04
     force convergence thresh. =      1.0E-03
     Exchange-correlation= BLYP
                           (   1   3   1   3   0   0   0)
     nstep                     =           50


     celldm(1)=  30.000000  celldm(2)=   0.000000  celldm(3)=   0.000000
     celldm(4)=   0.000000  celldm(5)=   0.000000  celldm(6)=   0.000000

     crystal axes: (cart. coord. in units of alat)
               a(1) = (   1.000000   0.000000   0.000000 )  
               a(2) = (   0.000000   1.000000   0.000000 )  
               a(3) = (   0.000000   0.000000   1.000000 )  

     reciprocal axes: (cart. coord. in units 2 pi/alat)
               b(1) = (  1.000000  0.000000  0.000000 )  
               b(2) = (  0.000000  1.000000  0.000000 )  
               b(3) = (  0.000000  0.000000  1.000000 )  


     PseudoPot. # 1 for hy read from file:
     /root/q-e/pseudo/H_US.van
     MD5 check sum: a9a9bfe98ff56cf4de197d71fc46bb44
     Pseudo is Ultrasoft, Zval =  1.0
     Generated by Vanderbilt code, v. 7.3.2
     Using radial grid of  399 points,  1 beta functions with: 
                l(1) =   0
     Q(r) pseudized with  8 coefficients,  rinner =    0.500

     atomic species   valence    mass     pseudopotential
        H              1.00     1.00784     hy( 1.00)

      8 Sym. Ops. (no inversion) found


                                    s                        frac. trans.

      isym =  1     identity                                     

 cryst.   s( 1) = (     1          0          0      )
                  (     0          1          0      )
                  (     0          0          1      )

 cart.    s( 1) = (  1.0000000  0.0000000  0.0000000 )
                  (  0.0000000  1.0000000  0.0000000 )
                  (  0.0000000  0.0000000  1.0000000 )


      isym =  2     180 deg rotation - cart. axis [1,0,0]        

 cryst.   s( 2) = (     1          0          0      )
                  (     0         -1          0      )
                  (     0          0         -1      )

 cart.    s( 2) = (  1.0000000  0.0000000  0.0000000 )
                  (  0.0000000 -1.0000000  0.0000000 )
                  (  0.0000000  0.0000000 -1.0000000 )


      isym =  3      90 deg rotation - cart. axis [-1,0,0]       

 cryst.   s( 3) = (     1          0          0      )
                  (     0          0         -1      )
                  (     0          1          0      )

 cart.    s( 3) = (  1.0000000  0.0000000  0.0000000 )
                  (  0.0000000  0.0000000  1.0000000 )
                  (  0.0000000 -1.0000000  0.0000000 )


      isym =  4      90 deg rotation - cart. axis [1,0,0]        

 cryst.   s( 4) = (     1          0          0      )
                  (     0          0          1      )
                  (     0         -1          0      )

 cart.    s( 4) = (  1.0000000  0.0000000  0.0000000 )
                  (  0.0000000  0.0000000 -1.0000000 )
                  (  0.0000000  1.0000000  0.0000000 )


      isym =  5     inv. 180 deg rotation - cart. axis [0,0,1]   

 cryst.   s( 5) = (     1          0          0      )
                  (     0          1          0      )
                  (     0          0         -1      )

 cart.    s( 5) = (  1.0000000  0.0000000  0.0000000 )
                  (  0.0000000  1.0000000  0.0000000 )
                  (  0.0000000  0.0000000 -1.0000000 )


      isym =  6     inv. 180 deg rotation - cart. axis [0,1,0]   

 cryst.   s( 6) = (     1          0          0      )
                  (     0         -1          0      )
                  (     0          0          1      )

 cart.    s( 6) = (  1.0000000  0.0000000  0.0000000 )
                  (  0.0000000 -1.0000000  0.0000000 )
                  (  0.0000000  0.0000000  1.0000000 )


      isym =  7     inv. 180 deg rotation - cart. axis [0,1,1]   

 cryst.   s( 7) = (     1          0          0      )
                  (     0          0         -1      )
                  (     0         -1          0      )

 cart.    s( 7) = (  1.0000000  0.0000000  0.0000000 )
                  (  0.0000000  0.0000000 -1.0000000 )
                  (  0.0000000 -1.0000000  0.0000000 )


      isym =  8     inv. 180 deg rotation - cart. axis [0,1,-1]  

 cryst.   s( 8) = (     1          0          0      )
                  (     0          0          1      )
                  (     0          1          0      )

 cart.    s( 8) = (  1.0000000  0.0000000  0.0000000 )
                  (  0.0000000  0.0000000  1.0000000 )
                  (  0.0000000  1.0000000  0.0000000 )


     point group C_4v (4mm) 
     there are  5 classes
     the character table:

       E     2C4   C2    2s_v  2s_d 
A_1    1.00  1.00  1.00  1.00  1.00
A_2    1.00  1.00  1.00 -1.00 -1.00
B_1    1.00 -1.00  1.00  1.00 -1.00
B_2    1.00 -1.00  1.00 -1.00  1.00
E      2.00  0.00 -2.00  0.00  0.00

     the symmetry operations in each class and the name of the first element:

     E        1
          identity                                               
     2C4      3    4
           90 deg rotation - cart. axis [-1,0,0]                 
     C2       2
          180 deg rotation - cart. axis [1,0,0]                  
     2s_v     5    6
          inv. 180 deg rotation - cart. axis [0,0,1]             
     2s_d     7    8
          inv. 180 deg rotation - cart. axis [0,1,1]             

   Cartesian axes

     site n.     atom                  positions (alat units)
         1           H   tau(   1) = (   0.0000000   0.0000000   0.0000000  )
         2           H   tau(   2) = (   0.0503927   0.0000000   0.0000000  )

   Crystallographic axes

     site n.     atom                  positions (cryst. coord.)
         1           H   tau(   1) = (  0.0000000  0.0000000  0.0000000  )
         2           H   tau(   2) = (  0.0503927  0.0000000  0.0000000  )

     number of k points=     1
                       cart. coord. in units 2pi/alat
        k(    1) = (  -0.5000000  -0.5000000  -0.5000000), wk =   2.0000000

                       cryst. coord.
        k(    1) = (  -0.5000000  -0.5000000  -0.5000000), wk =   2.0000000

     Dense  grid:   455863 G-vectors     FFT dimensions: (  96,  96,  96)

     Dynamical RAM for                 wfc:       1.74 MB

     Dynamical RAM for     wfc (w. buffer):       1.74 MB

     Dynamical RAM for           str. fact:       6.96 MB

     Dynamical RAM for           local pot:       0.00 MB

     Dynamical RAM for          nlocal pot:       1.74 MB

     Dynamical RAM for                qrad:       0.01 MB

     Dynamical RAM for          rho,v,vnew:      41.12 MB

     Dynamical RAM for               rhoin:      13.71 MB

     Dynamical RAM for            rho*nmix:     111.29 MB

     Dynamical RAM for           G-vectors:      29.56 MB

     Dynamical RAM for          h,s,v(r/c):       0.00 MB

     Dynamical RAM for          <psi|beta>:       0.00 MB

     Dynamical RAM for                 psi:       3.48 MB

     Dynamical RAM for                hpsi:       3.48 MB

     Dynamical RAM for                spsi:       3.48 MB

     Dynamical RAM for      wfcinit/wfcrot:       3.48 MB

     Dynamical RAM for           addusdens:      41.74 MB

     Dynamical RAM for          addusforce:      59.13 MB

     Estimated static dynamical RAM per process >     142.49 MB

     Estimated max dynamical RAM per process >     312.91 MB

     Initial potential from superposition of free atoms

     starting charge       2.0000, renormalised to       2.0000

     negative rho (up, down):  3.045E-02 0.000E+00
     Starting wfcs are    2 randomized atomic wfcs

     total cpu time spent up to now is        0.8 secs

     Self-consistent Calculation

     iteration #  1     ecut=    25.00 Ry     beta= 0.70
     Davidson diagonalization with overlap

---- Real-time Memory Report at c_bands before calling an iterative solver
           245 MiB given to the printing process from OS
             0 MiB allocation reported by mallinfo(arena+hblkhd)
           375 MiB available memory on the node where the printing process lives
------------------
     ethr =  1.00E-02,  avg # of iterations =  3.0

     negative rho (up, down):  4.030E-02 0.000E+00

     total cpu time spent up to now is        1.7 secs

     total energy              =      -2.30976587 Ry
     estimated scf accuracy    <       0.09995057 Ry

     iteration #  2     ecut=    25.00 Ry     beta= 0.70
     Davidson diagonalization with overlap

---- Real-time Memory Report at c_bands before calling an iterative solver
           308 MiB given to the printing process from OS
             0 MiB allocation reported by mallinfo(arena+hblkhd)
           250 MiB available memory on the node where the printing process lives
------------------
     ethr =  5.00E-03,  avg # of iterations =  2.0

     negative rho (up, down):  4.218E-02 0.000E+00

     total cpu time spent up to now is        2.4 secs

     total energy              =      -2.31554566 Ry
     estimated scf accuracy    <       0.00109141 Ry

     iteration #  3     ecut=    25.00 Ry     beta= 0.70
     Davidson diagonalization with overlap

---- Real-time Memory Report at c_bands before calling an iterative solver
           322 MiB given to the printing process from OS
             0 MiB allocation reported by mallinfo(arena+hblkhd)
           236 MiB available memory on the node where the printing process lives
------------------
     ethr =  5.46E-05,  avg # of iterations = 11.0

     negative rho (up, down):  4.189E-02 0.000E+00

     total cpu time spent up to now is        3.5 secs

     total energy              =      -2.31606821 Ry
     estimated scf accuracy    <       0.00001384 Ry

     iteration #  4     ecut=    25.00 Ry     beta= 0.70
     Davidson diagonalization with overlap

---- Real-time Memory Report at c_bands before calling an iterative solver
           335 MiB given to the printing process from OS
             0 MiB allocation reported by mallinfo(arena+hblkhd)
           222 MiB available memory on the node where the printing process lives
------------------
     ethr =  6.92E-07,  avg # of iterations =  5.0

     negative rho (up, down):  4.188E-02 0.000E+00

     total cpu time spent up to now is        4.5 secs

     total energy              =      -2.31608801 Ry
     estimated scf accuracy    <       0.00000039 Ry

     iteration #  5     ecut=    25.00 Ry     beta= 0.70
     Davidson diagonalization with overlap

---- Real-time Memory Report at c_bands before calling an iterative solver
           350 MiB given to the printing process from OS
             0 MiB allocation reported by mallinfo(arena+hblkhd)
           208 MiB available memory on the node where the printing process lives
------------------
     ethr =  1.96E-08,  avg # of iterations =  2.0

     negative rho (up, down):  4.188E-02 0.000E+00

     total cpu time spent up to now is        5.2 secs

     total energy              =      -2.31607785 Ry
     estimated scf accuracy    <       0.00000001 Ry

     iteration #  6     ecut=    25.00 Ry     beta= 0.70
     Davidson diagonalization with overlap

---- Real-time Memory Report at c_bands before calling an iterative solver
           363 MiB given to the printing process from OS
             0 MiB allocation reported by mallinfo(arena+hblkhd)
           194 MiB available memory on the node where the printing process lives
------------------
     ethr =  5.97E-10,  avg # of iterations =  3.0

     negative rho (up, down):  4.188E-02 0.000E+00

     total cpu time spent up to now is        6.0 secs

     End of self-consistent calculation

          k =-0.5000-0.5000-0.5000 ( 57016 PWs)   bands (ev):

   -10.1417  -1.0399

     occupation numbers 
     1.0000   0.0000

     highest occupied, lowest unoccupied level (ev):   -10.1417   -1.0399

!    total energy              =      -2.31608721 Ry
     estimated scf accuracy    <          1.0E-09 Ry

     The total energy is the sum of the following terms:
     one-electron contribution =      -4.08205245 Ry
     hartree contribution      =       2.17366563 Ry
     xc contribution           =      -1.35269297 Ry
     ewald contribution        =       0.94499258 Ry

     convergence has been achieved in   6 iterations

     Forces acting on atoms (cartesian axes, Ry/au):

     atom    1 type  1   force =     0.07304869    0.00000000    0.00000000
     atom    2 type  1   force =    -0.07304869    0.00000000    0.00000000
     The non-local contrib.  to forces
     atom    1 type  1   force =     0.10586618    0.00000000    0.00000000
     atom    2 type  1   force =    -0.10563789    0.00000000    0.00000000
     The ionic contribution  to forces
     atom    1 type  1   force =    -0.87461651   -0.00000000   -0.00000000
     atom    2 type  1   force =     0.87461651    0.00000000   -0.00000000
     The local contribution  to forces
     atom    1 type  1   force =     0.84193879    0.00000000    0.00000000
     atom    2 type  1   force =    -0.84189325    0.00000000    0.00000000
     The core correction contribution to forces
     atom    1 type  1   force =     0.00000000    0.00000000    0.00000000
     atom    2 type  1   force =     0.00000000    0.00000000    0.00000000
     The Hubbard contrib.    to forces
     atom    1 type  1   force =     0.00000000    0.00000000    0.00000000
     atom    2 type  1   force =     0.00000000    0.00000000    0.00000000
     The SCF correction term to forces
     atom    1 type  1   force =     0.00000373    0.00000000   -0.00000000
     atom    2 type  1   force =     0.00000945   -0.00000000   -0.00000000

     Total force =     0.103306     Total SCF correction =     0.000010

     BFGS Geometry Optimization
     Energy error            =      0.0E+00 Ry
     Gradient error          =      7.3E-02 Ry/Bohr

     number of scf cycles    =   1
     number of bfgs steps    =   0

     energy             new  =      -2.3160872087 Ry

     new trust radius        =       0.0730486882 bohr
     new conv_thr            =       0.0000000100 Ry


ATOMIC_POSITIONS (angstrom)
H             0.0386557011        0.0000000000        0.0000000000
H             0.7613442989        0.0000000000        0.0000000000



     Writing config-only to output data dir ./.save/
     NEW-OLD atomic charge density approx. for the potential

     negative rho (up, down):  4.178E-02 0.000E+00

     total cpu time spent up to now is        6.8 secs

     Self-consistent Calculation

     iteration #  1     ecut=    25.00 Ry     beta= 0.70
     Davidson diagonalization with overlap

---- Real-time Memory Report at c_bands before calling an iterative solver
           370 MiB given to the printing process from OS
             0 MiB allocation reported by mallinfo(arena+hblkhd)
           368 MiB available memory on the node where the printing process lives
------------------
     ethr =  1.00E-06,  avg # of iterations =  9.0

     negative rho (up, down):  4.539E-02 0.000E+00

     total cpu time spent up to now is        7.8 secs

     total energy              =      -2.31647826 Ry
     estimated scf accuracy    <       0.00167438 Ry

     iteration #  2     ecut=    25.00 Ry     beta= 0.70
     Davidson diagonalization with overlap

---- Real-time Memory Report at c_bands before calling an iterative solver
           370 MiB given to the printing process from OS
             0 MiB allocation reported by mallinfo(arena+hblkhd)
           244 MiB available memory on the node where the printing process lives
------------------
     ethr =  8.37E-05,  avg # of iterations =  1.0

     negative rho (up, down):  4.619E-02 0.000E+00

     total cpu time spent up to now is        8.6 secs

     total energy              =      -2.31610178 Ry
     estimated scf accuracy    <       0.00001657 Ry

     iteration #  3     ecut=    25.00 Ry     beta= 0.70
     Davidson diagonalization with overlap

---- Real-time Memory Report at c_bands before calling an iterative solver
           370 MiB given to the printing process from OS
             0 MiB allocation reported by mallinfo(arena+hblkhd)
           230 MiB available memory on the node where the printing process lives
------------------
     ethr =  8.28E-07,  avg # of iterations =  5.0

     negative rho (up, down):  4.637E-02 0.000E+00

     total cpu time spent up to now is        9.4 secs

     total energy              =      -2.31597353 Ry
     estimated scf accuracy    <       0.00000073 Ry

     iteration #  4     ecut=    25.00 Ry     beta= 0.70
     Davidson diagonalization with overlap

---- Real-time Memory Report at c_bands before calling an iterative solver
           370 MiB given to the printing process from OS
             0 MiB allocation reported by mallinfo(arena+hblkhd)
           216 MiB available memory on the node where the printing process lives
------------------
     ethr =  3.67E-08,  avg # of iterations =  2.0

     negative rho (up, down):  4.636E-02 0.000E+00

     total cpu time spent up to now is       10.1 secs

     End of self-consistent calculation

          k =-0.5000-0.5000-0.5000 ( 57016 PWs)   bands (ev):

   -10.5224  -1.1467

     occupation numbers 
     1.0000   0.0000

     highest occupied, lowest unoccupied level (ev):   -10.5224   -1.1467

!    total energy              =      -2.31598060 Ry
     estimated scf accuracy    <          7.5E-10 Ry

     The total energy is the sum of the following terms:
     one-electron contribution =      -4.27799598 Ry
     hartree contribution      =       2.27672143 Ry
     xc contribution           =      -1.40115807 Ry
     ewald contribution        =       1.08645202 Ry

     convergence has been achieved in   4 iterations

     Forces acting on atoms (cartesian axes, Ry/au):

     atom    1 type  1   force =    -0.04208052    0.00000000    0.00000000
     atom    2 type  1   force =     0.04208052    0.00000000    0.00000000
     The non-local contrib.  to forces
     atom    1 type  1   force =     0.10873107    0.00000000    0.00000000
     atom    2 type  1   force =    -0.10829630    0.00000000    0.00000000
     The ionic contribution  to forces
     atom    1 type  1   force =    -1.07190710    0.00000000   -0.00000000
     atom    2 type  1   force =     1.07190710   -0.00000000   -0.00000000
     The local contribution  to forces
     atom    1 type  1   force =     0.92135169    0.00000000    0.00000000
     atom    2 type  1   force =    -0.92129372    0.00000000    0.00000000
     The core correction contribution to forces
     atom    1 type  1   force =     0.00000000    0.00000000    0.00000000
     atom    2 type  1   force =     0.00000000    0.00000000    0.00000000
     The Hubbard contrib.    to forces
     atom    1 type  1   force =     0.00000000    0.00000000    0.00000000
     atom    2 type  1   force =     0.00000000    0.00000000    0.00000000
     The SCF correction term to forces
     atom    1 type  1   force =     0.00002075   -0.00000000   -0.00000000
     atom    2 type  1   force =     0.00004035    0.00000000   -0.00000000

     Total force =     0.059511     Total SCF correction =     0.000045
     Energy error            =      1.1E-04 Ry
     Gradient error          =      4.2E-02 Ry/Bohr

     number of scf cycles    =   2
     number of bfgs steps    =   1

     energy             old  =      -2.3160872087 Ry
     energy             new  =      -2.3159806044 Ry

     CASE: energy            _new > energy            _old

     new trust radius        =       0.0361631126 bohr
     new conv_thr            =       0.0000000100 Ry


ATOMIC_POSITIONS (angstrom)
H             0.0191366951        0.0000000000        0.0000000000
H             0.7808633049        0.0000000000        0.0000000000



     Writing config-only to output data dir ./.save/
     NEW-OLD atomic charge density approx. for the potential

     negative rho (up, down):  4.631E-02 0.000E+00

     total cpu time spent up to now is       10.9 secs

     Self-consistent Calculation

     iteration #  1     ecut=    25.00 Ry     beta= 0.70
     Davidson diagonalization with overlap

---- Real-time Memory Report at c_bands before calling an iterative solver
           370 MiB given to the printing process from OS
             0 MiB allocation reported by mallinfo(arena+hblkhd)
           368 MiB available memory on the node where the printing process lives
------------------
     ethr =  1.00E-06,  avg # of iterations =  5.0

     negative rho (up, down):  4.474E-02 0.000E+00

     total cpu time spent up to now is       11.9 secs

     total energy              =      -2.31761856 Ry
     estimated scf accuracy    <       0.00044612 Ry

     iteration #  2     ecut=    25.00 Ry     beta= 0.70
     Davidson diagonalization with overlap

---- Real-time Memory Report at c_bands before calling an iterative solver
           370 MiB given to the printing process from OS
             0 MiB allocation reported by mallinfo(arena+hblkhd)
           244 MiB available memory on the node where the printing process lives
------------------
     ethr =  2.23E-05,  avg # of iterations =  1.0

     negative rho (up, down):  4.445E-02 0.000E+00

     total cpu time spent up to now is       12.6 secs

     total energy              =      -2.31787421 Ry
     estimated scf accuracy    <       0.00000505 Ry

     iteration #  3     ecut=    25.00 Ry     beta= 0.70
     Davidson diagonalization with overlap

---- Real-time Memory Report at c_bands before calling an iterative solver
           370 MiB given to the printing process from OS
             0 MiB allocation reported by mallinfo(arena+hblkhd)
           230 MiB available memory on the node where the printing process lives
------------------
     ethr =  2.52E-07,  avg # of iterations =  5.0

     negative rho (up, down):  4.441E-02 0.000E+00

     total cpu time spent up to now is       13.5 secs

     total energy              =      -2.31790602 Ry
     estimated scf accuracy    <       0.00000026 Ry

     iteration #  4     ecut=    25.00 Ry     beta= 0.70
     Davidson diagonalization with overlap

---- Real-time Memory Report at c_bands before calling an iterative solver
           370 MiB given to the printing process from OS
             0 MiB allocation reported by mallinfo(arena+hblkhd)
           216 MiB available memory on the node where the printing process lives
------------------
     ethr =  1.30E-08,  avg # of iterations =  2.0

     negative rho (up, down):  4.441E-02 0.000E+00

     total cpu time spent up to now is       14.2 secs

     End of self-consistent calculation

          k =-0.5000-0.5000-0.5000 ( 57016 PWs)   bands (ev):

   -10.3258  -1.1153

     occupation numbers 
     1.0000   0.0000

     highest occupied, lowest unoccupied level (ev):   -10.3258   -1.1153

!    total energy              =      -2.31791220 Ry
     estimated scf accuracy    <          2.4E-09 Ry

     The total energy is the sum of the following terms:
     one-electron contribution =      -4.17692667 Ry
     hartree contribution      =       2.22373305 Ry
     xc contribution           =      -1.37614985 Ry
     ewald contribution        =       1.01143126 Ry

     convergence has been achieved in   4 iterations

     Forces acting on atoms (cartesian axes, Ry/au):

     atom    1 type  1   force =     0.02384407    0.00000000    0.00000000
     atom    2 type  1   force =    -0.02384407    0.00000000    0.00000000
     The non-local contrib.  to forces
     atom    1 type  1   force =     0.10824153    0.00000000    0.00000000
     atom    2 type  1   force =    -0.10753665    0.00000000    0.00000000
     The ionic contribution  to forces
     atom    1 type  1   force =    -0.96478741    0.00000000   -0.00000000
     atom    2 type  1   force =     0.96478741    0.00000000   -0.00000000
     The local contribution  to forces
     atom    1 type  1   force =     0.88074084    0.00000000    0.00000000
     atom    2 type  1   force =    -0.88069102    0.00000000    0.00000000
     The core correction contribution to forces
     atom    1 type  1   force =     0.00000000    0.00000000    0.00000000
     atom    2 type  1   force =     0.00000000    0.00000000    0.00000000
     The Hubbard contrib.    to forces
     atom    1 type  1   force =     0.00000000    0.00000000    0.00000000
     atom    2 type  1   force =     0.00000000    0.00000000    0.00000000
     The SCF correction term to forces
     atom    1 type  1   force =     0.00006517   -0.00000000    0.00000000
     atom    2 type  1   force =     0.00001225   -0.00000000    0.00000000

     Total force =     0.033721     Total SCF correction =     0.000066
     Energy error            =      1.8E-03 Ry
     Gradient error          =      2.4E-02 Ry/Bohr

     number of scf cycles    =   3
     number of bfgs steps    =   1

     energy             old  =      -2.3160872087 Ry
     energy             new  =      -2.3179122013 Ry

     CASE: energy            _new < energy            _old

     new trust radius        =       0.0175242831 bohr
     new conv_thr            =       0.0000000018 Ry


ATOMIC_POSITIONS (angstrom)
H             0.0284101464        0.0000000000        0.0000000000
H             0.7715898536        0.0000000000        0.0000000000



     Writing config-only to output data dir ./.save/
     NEW-OLD atomic charge density approx. for the potential

     negative rho (up, down):  4.440E-02 0.000E+00

     total cpu time spent up to now is       15.0 secs

     Self-consistent Calculation

     iteration #  1     ecut=    25.00 Ry     beta= 0.70
     Davidson diagonalization with overlap

---- Real-time Memory Report at c_bands before calling an iterative solver
           370 MiB given to the printing process from OS
             0 MiB allocation reported by mallinfo(arena+hblkhd)
           368 MiB available memory on the node where the printing process lives
------------------
     ethr =  1.00E-06,  avg # of iterations =  3.0

     negative rho (up, down):  4.522E-02 0.000E+00

     total cpu time spent up to now is       15.9 secs

     total energy              =      -2.31764996 Ry
     estimated scf accuracy    <       0.00009756 Ry

     iteration #  2     ecut=    25.00 Ry     beta= 0.70
     Davidson diagonalization with overlap

---- Real-time Memory Report at c_bands before calling an iterative solver
           370 MiB given to the printing process from OS
             0 MiB allocation reported by mallinfo(arena+hblkhd)
           244 MiB available memory on the node where the printing process lives
------------------
     ethr =  4.88E-06,  avg # of iterations =  1.0

     negative rho (up, down):  4.540E-02 0.000E+00

     total cpu time spent up to now is       16.6 secs

     total energy              =      -2.31753841 Ry
     estimated scf accuracy    <       0.00000129 Ry

     iteration #  3     ecut=    25.00 Ry     beta= 0.70
     Davidson diagonalization with overlap

---- Real-time Memory Report at c_bands before calling an iterative solver
           370 MiB given to the printing process from OS
             0 MiB allocation reported by mallinfo(arena+hblkhd)
           230 MiB available memory on the node where the printing process lives
------------------
     ethr =  6.46E-08,  avg # of iterations =  2.0

     negative rho (up, down):  4.542E-02 0.000E+00

     total cpu time spent up to now is       17.4 secs

     total energy              =      -2.31751557 Ry
     estimated scf accuracy    <       0.00000006 Ry

     iteration #  4     ecut=    25.00 Ry     beta= 0.70
     Davidson diagonalization with overlap

---- Real-time Memory Report at c_bands before calling an iterative solver
           370 MiB given to the printing process from OS
             0 MiB allocation reported by mallinfo(arena+hblkhd)
           216 MiB available memory on the node where the printing process lives
------------------
     ethr =  3.15E-09,  avg # of iterations =  2.0

     negative rho (up, down):  4.543E-02 0.000E+00

     total cpu time spent up to now is       18.1 secs

     total energy              =      -2.31751255 Ry
     estimated scf accuracy    <          7.8E-09 Ry

     iteration #  5     ecut=    25.00 Ry     beta= 0.70
     Davidson diagonalization with overlap

---- Real-time Memory Report at c_bands before calling an iterative solver
           370 MiB given to the printing process from OS
             0 MiB allocation reported by mallinfo(arena+hblkhd)
           202 MiB available memory on the node where the printing process lives
------------------
     ethr =  3.92E-10,  avg # of iterations =  3.0

     negative rho (up, down):  4.543E-02 0.000E+00

     total cpu time spent up to now is       18.8 secs

     End of self-consistent calculation

          k =-0.5000-0.5000-0.5000 ( 57016 PWs)   bands (ev):

   -10.4179  -1.1393

     occupation numbers 
     1.0000   0.0000

     highest occupied, lowest unoccupied level (ev):   -10.4179   -1.1393

!    total energy              =      -2.31751164 Ry
     estimated scf accuracy    <          7.3E-11 Ry

     The total energy is the sum of the following terms:
     one-electron contribution =      -4.22444659 Ry
     hartree contribution      =       2.24876444 Ry
     xc contribution           =      -1.38791963 Ry
     ewald contribution        =       1.04609014 Ry

     convergence has been achieved in   5 iterations

     Forces acting on atoms (cartesian axes, Ry/au):

     atom    1 type  1   force =    -0.00525924    0.00000000    0.00000000
     atom    2 type  1   force =     0.00525924    0.00000000    0.00000000
     The non-local contrib.  to forces
     atom    1 type  1   force =     0.10863575    0.00000000    0.00000000
     atom    2 type  1   force =    -0.10811023    0.00000000    0.00000000
     The ionic contribution  to forces
     atom    1 type  1   force =    -1.01357686    0.00000000   -0.00000000
     atom    2 type  1   force =     1.01357686   -0.00000000   -0.00000000
     The local contribution  to forces
     atom    1 type  1   force =     0.90000432    0.00000000    0.00000000
     atom    2 type  1   force =    -0.89988686    0.00000000    0.00000000
     The core correction contribution to forces
     atom    1 type  1   force =     0.00000000    0.00000000    0.00000000
     atom    2 type  1   force =     0.00000000    0.00000000    0.00000000
     The Hubbard contrib.    to forces
     atom    1 type  1   force =     0.00000000    0.00000000    0.00000000
     atom    2 type  1   force =     0.00000000    0.00000000    0.00000000
     The SCF correction term to forces
     atom    1 type  1   force =    -0.00000097    0.00000000    0.00000000
     atom    2 type  1   force =     0.00000094    0.00000000    0.00000000

     Total force =     0.007438     Total SCF correction =     0.000001
     Energy error            =      4.0E-04 Ry
     Gradient error          =      5.3E-03 Ry/Bohr

     number of scf cycles    =   4
     number of bfgs steps    =   2

     energy             old  =      -2.3179122013 Ry
     energy             new  =      -2.3175116393 Ry

     CASE: energy            _new > energy            _old

     new trust radius        =       0.0059231155 bohr
     new conv_thr            =       0.0000000018 Ry


ATOMIC_POSITIONS (angstrom)
H             0.0222710728        0.0000000000        0.0000000000
H             0.7777289272        0.0000000000        0.0000000000



     Writing config-only to output data dir ./.save/
     NEW-OLD atomic charge density approx. for the potential

     negative rho (up, down):  4.541E-02 0.000E+00

     total cpu time spent up to now is       19.6 secs

     Self-consistent Calculation

     iteration #  1     ecut=    25.00 Ry     beta= 0.70
     Davidson diagonalization with overlap

---- Real-time Memory Report at c_bands before calling an iterative solver
           370 MiB given to the printing process from OS
             0 MiB allocation reported by mallinfo(arena+hblkhd)
           368 MiB available memory on the node where the printing process lives
------------------
     ethr =  1.00E-06,  avg # of iterations =  3.0

     negative rho (up, down):  4.490E-02 0.000E+00

     total cpu time spent up to now is       20.5 secs

     total energy              =      -2.31777064 Ry
     estimated scf accuracy    <       0.00004241 Ry

     iteration #  2     ecut=    25.00 Ry     beta= 0.70
     Davidson diagonalization with overlap

---- Real-time Memory Report at c_bands before calling an iterative solver
           370 MiB given to the printing process from OS
             0 MiB allocation reported by mallinfo(arena+hblkhd)
           244 MiB available memory on the node where the printing process lives
------------------
     ethr =  2.12E-06,  avg # of iterations =  1.0

     negative rho (up, down):  4.479E-02 0.000E+00

     total cpu time spent up to now is       21.2 secs

     total energy              =      -2.31785612 Ry
     estimated scf accuracy    <       0.00000055 Ry

     iteration #  3     ecut=    25.00 Ry     beta= 0.70
     Davidson diagonalization with overlap

---- Real-time Memory Report at c_bands before calling an iterative solver
           370 MiB given to the printing process from OS
             0 MiB allocation reported by mallinfo(arena+hblkhd)
           230 MiB available memory on the node where the printing process lives
------------------
     ethr =  2.74E-08,  avg # of iterations =  2.0

     negative rho (up, down):  4.477E-02 0.000E+00

     total cpu time spent up to now is       22.0 secs

     total energy              =      -2.31787662 Ry
     estimated scf accuracy    <       0.00000002 Ry

     iteration #  4     ecut=    25.00 Ry     beta= 0.70
     Davidson diagonalization with overlap

---- Real-time Memory Report at c_bands before calling an iterative solver
           370 MiB given to the printing process from OS
             0 MiB allocation reported by mallinfo(arena+hblkhd)
           216 MiB available memory on the node where the printing process lives
------------------
     ethr =  8.86E-10,  avg # of iterations =  3.0

     negative rho (up, down):  4.478E-02 0.000E+00

     total cpu time spent up to now is       22.7 secs

     End of self-consistent calculation

          k =-0.5000-0.5000-0.5000 ( 57016 PWs)   bands (ev):

   -10.3569  -1.1271

     occupation numbers 
     1.0000   0.0000

     highest occupied, lowest unoccupied level (ev):   -10.3569   -1.1271

!    total energy              =      -2.31787493 Ry
     estimated scf accuracy    <          1.8E-09 Ry

     The total energy is the sum of the following terms:
     one-electron contribution =      -4.19293781 Ry
     hartree contribution      =       2.23225843 Ry
     xc contribution           =      -1.38015081 Ry
     ewald contribution        =       1.02295526 Ry

     convergence has been achieved in   4 iterations

     Forces acting on atoms (cartesian axes, Ry/au):

     atom    1 type  1   force =     0.01442799    0.00000000    0.00000000
     atom    2 type  1   force =    -0.01442799    0.00000000    0.00000000
     The non-local contrib.  to forces
     atom    1 type  1   force =     0.10849821    0.00000000    0.00000000
     atom    2 type  1   force =    -0.10766154    0.00000000    0.00000000
     The ionic contribution  to forces
     atom    1 type  1   force =    -0.98087661   -0.00000000   -0.00000000
     atom    2 type  1   force =     0.98087661    0.00000000   -0.00000000
     The local contribution  to forces
     atom    1 type  1   force =     0.88727229    0.00000000    0.00000000
     atom    2 type  1   force =    -0.88719412    0.00000000    0.00000000
     The core correction contribution to forces
     atom    1 type  1   force =     0.00000000    0.00000000    0.00000000
     atom    2 type  1   force =     0.00000000    0.00000000    0.00000000
     The Hubbard contrib.    to forces
     atom    1 type  1   force =     0.00000000    0.00000000    0.00000000
     atom    2 type  1   force =     0.00000000    0.00000000    0.00000000
     The SCF correction term to forces
     atom    1 type  1   force =     0.00013099    0.00000000    0.00000000
     atom    2 type  1   force =     0.00014793   -0.00000000   -0.00000000

     Total force =     0.020404     Total SCF correction =     0.000198
     Energy error            =      3.7E-05 Ry
     Gradient error          =      1.4E-02 Ry/Bohr

     number of scf cycles    =   5
     number of bfgs steps    =   2

     energy             old  =      -2.3179122013 Ry
     energy             new  =      -2.3178749280 Ry

     CASE: energy            _new > energy            _old

     new trust radius        =       0.0026163129 bohr
     new conv_thr            =       0.0000000018 Ry


ATOMIC_POSITIONS (angstrom)
H             0.0205211882        0.0000000000        0.0000000000
H             0.7794788118        0.0000000000        0.0000000000



     Writing config-only to output data dir ./.save/
     NEW-OLD atomic charge density approx. for the potential

     negative rho (up, down):  4.477E-02 0.000E+00

     total cpu time spent up to now is       23.5 secs

     Self-consistent Calculation

     iteration #  1     ecut=    25.00 Ry     beta= 0.70
     Davidson diagonalization with overlap

---- Real-time Memory Report at c_bands before calling an iterative solver
           370 MiB given to the printing process from OS
             0 MiB allocation reported by mallinfo(arena+hblkhd)
           368 MiB available memory on the node where the printing process lives
------------------
     ethr =  1.00E-06,  avg # of iterations =  2.0

     negative rho (up, down):  4.462E-02 0.000E+00

     total cpu time spent up to now is       24.3 secs

     total energy              =      -2.31787866 Ry
     estimated scf accuracy    <       0.00000318 Ry

     iteration #  2     ecut=    25.00 Ry     beta= 0.70
     Davidson diagonalization with overlap

---- Real-time Memory Report at c_bands before calling an iterative solver
           370 MiB given to the printing process from OS
             0 MiB allocation reported by mallinfo(arena+hblkhd)
           244 MiB available memory on the node where the printing process lives
------------------
     ethr =  1.59E-07,  avg # of iterations =  1.0

     negative rho (up, down):  4.458E-02 0.000E+00

     total cpu time spent up to now is       25.0 secs

     total energy              =      -2.31790725 Ry
     estimated scf accuracy    <       0.00000009 Ry

     iteration #  3     ecut=    25.00 Ry     beta= 0.70
     Davidson diagonalization with overlap

---- Real-time Memory Report at c_bands before calling an iterative solver
           370 MiB given to the printing process from OS
             0 MiB allocation reported by mallinfo(arena+hblkhd)
           230 MiB available memory on the node where the printing process lives
------------------
     ethr =  4.41E-09,  avg # of iterations =  2.0

     negative rho (up, down):  4.459E-02 0.000E+00

     total cpu time spent up to now is       25.8 secs

     total energy              =      -2.31790563 Ry
     estimated scf accuracy    <          7.2E-09 Ry

     iteration #  4     ecut=    25.00 Ry     beta= 0.70
     Davidson diagonalization with overlap

---- Real-time Memory Report at c_bands before calling an iterative solver
           370 MiB given to the printing process from OS
             0 MiB allocation reported by mallinfo(arena+hblkhd)
           216 MiB available memory on the node where the printing process lives
------------------
     ethr =  3.62E-10,  avg # of iterations =  2.0

     negative rho (up, down):  4.458E-02 0.000E+00

     total cpu time spent up to now is       26.5 secs

     total energy              =      -2.31790991 Ry
     estimated scf accuracy    <          3.4E-09 Ry

     iteration #  5     ecut=    25.00 Ry     beta= 0.70
     Davidson diagonalization with overlap

---- Real-time Memory Report at c_bands before calling an iterative solver
           370 MiB given to the printing process from OS
             0 MiB allocation reported by mallinfo(arena+hblkhd)
           202 MiB available memory on the node where the printing process lives
------------------
     ethr =  1.68E-10,  avg # of iterations =  2.0

     negative rho (up, down):  4.458E-02 0.000E+00

     total cpu time spent up to now is       27.2 secs

     End of self-consistent calculation

          k =-0.5000-0.5000-0.5000 ( 57016 PWs)   bands (ev):

   -10.3393  -1.1203

     occupation numbers 
     1.0000   0.0000

     highest occupied, lowest unoccupied level (ev):   -10.3393   -1.1203

!    total energy              =      -2.31790736 Ry
     estimated scf accuracy    <          3.7E-12 Ry

     The total energy is the sum of the following terms:
     one-electron contribution =      -4.18402910 Ry
     hartree contribution      =       2.22757182 Ry
     xc contribution           =      -1.37794814 Ry
     ewald contribution        =       1.01649806 Ry

     convergence has been achieved in   5 iterations

     Forces acting on atoms (cartesian axes, Ry/au):

     atom    1 type  1   force =     0.01976790    0.00000000    0.00000000
     atom    2 type  1   force =    -0.01976790    0.00000000    0.00000000
     The non-local contrib.  to forces
     atom    1 type  1   force =     0.10842302    0.00000000    0.00000000
     atom    2 type  1   force =    -0.10757347    0.00000000    0.00000000
     The ionic contribution  to forces
     atom    1 type  1   force =    -0.97184507   -0.00000000   -0.00000000
     atom    2 type  1   force =     0.97184507    0.00000000   -0.00000000
     The local contribution  to forces
     atom    1 type  1   force =     0.88367056    0.00000000    0.00000000
     atom    2 type  1   force =    -0.88356110    0.00000000    0.00000000
     The core correction contribution to forces
     atom    1 type  1   force =     0.00000000    0.00000000    0.00000000
     atom    2 type  1   force =     0.00000000    0.00000000    0.00000000
     The Hubbard contrib.    to forces
     atom    1 type  1   force =     0.00000000    0.00000000    0.00000000
     atom    2 type  1   force =     0.00000000    0.00000000    0.00000000
     The SCF correction term to forces
     atom    1 type  1   force =     0.00000197   -0.00000000   -0.00000000
     atom    2 type  1   force =     0.00000418    0.00000000   -0.00000000

     Total force =     0.027956     Total SCF correction =     0.000005
     Energy error            =      4.8E-06 Ry
     Gradient error          =      2.0E-02 Ry/Bohr

     number of scf cycles    =   6
     number of bfgs steps    =   2

     energy             old  =      -2.3179122013 Ry
     energy             new  =      -2.3179073562 Ry

     CASE: energy            _new > energy            _old

     new trust radius        =       0.0012592552 bohr
     new conv_thr            =       0.0000000018 Ry


ATOMIC_POSITIONS (angstrom)
H             0.0198030642        0.0000000000        0.0000000000
H             0.7801969358        0.0000000000        0.0000000000



     Writing config-only to output data dir ./.save/
     NEW-OLD atomic charge density approx. for the potential

     negative rho (up, down):  4.458E-02 0.000E+00

     total cpu time spent up to now is       28.0 secs

     Self-consistent Calculation

     iteration #  1     ecut=    25.00 Ry     beta= 0.70
     Davidson diagonalization with overlap

---- Real-time Memory Report at c_bands before calling an iterative solver
           370 MiB given to the printing process from OS
             0 MiB allocation reported by mallinfo(arena+hblkhd)
           368 MiB available memory on the node where the printing process lives
------------------
     ethr =  1.00E-06,  avg # of iterations =  2.0

     Threshold (ethr) on eigenvalues was too large:
     Diagonalizing with lowered threshold

     Davidson diagonalization with overlap

---- Real-time Memory Report at c_bands before calling an iterative solver
           370 MiB given to the printing process from OS
             0 MiB allocation reported by mallinfo(arena+hblkhd)
           369 MiB available memory on the node where the printing process lives
------------------
     ethr =  2.73E-08,  avg # of iterations =  1.0

     negative rho (up, down):  4.451E-02 0.000E+00

     total cpu time spent up to now is       29.0 secs

     total energy              =      -2.31790011 Ry
     estimated scf accuracy    <       0.00000058 Ry

     iteration #  2     ecut=    25.00 Ry     beta= 0.70
     Davidson diagonalization with overlap

---- Real-time Memory Report at c_bands before calling an iterative solver
           370 MiB given to the printing process from OS
             0 MiB allocation reported by mallinfo(arena+hblkhd)
           244 MiB available memory on the node where the printing process lives
------------------
     ethr =  2.90E-08,  avg # of iterations =  2.0

     negative rho (up, down):  4.450E-02 0.000E+00

     total cpu time spent up to now is       29.8 secs

     total energy              =      -2.31790735 Ry
     estimated scf accuracy    <          7.0E-09 Ry

     iteration #  3     ecut=    25.00 Ry     beta= 0.70
     Davidson diagonalization with overlap

---- Real-time Memory Report at c_bands before calling an iterative solver
           370 MiB given to the printing process from OS
             0 MiB allocation reported by mallinfo(arena+hblkhd)
           230 MiB available memory on the node where the printing process lives
------------------
     ethr =  3.51E-10,  avg # of iterations =  2.0

     negative rho (up, down):  4.450E-02 0.000E+00

     total cpu time spent up to now is       30.5 secs

     End of self-consistent calculation

          k =-0.5000-0.5000-0.5000 ( 57016 PWs)   bands (ev):

   -10.3323  -1.1165

     occupation numbers 
     1.0000   0.0000

     highest occupied, lowest unoccupied level (ev):   -10.3323   -1.1165

!    total energy              =      -2.31790843 Ry
     estimated scf accuracy    <          3.9E-10 Ry

     The total energy is the sum of the following terms:
     one-electron contribution =      -4.18038776 Ry
     hartree contribution      =       2.22566378 Ry
     xc contribution           =      -1.37704980 Ry
     ewald contribution        =       1.01386535 Ry

     convergence has been achieved in   3 iterations

     Forces acting on atoms (cartesian axes, Ry/au):

     atom    1 type  1   force =     0.02189864    0.00000000    0.00000000
     atom    2 type  1   force =    -0.02189864    0.00000000    0.00000000
     The non-local contrib.  to forces
     atom    1 type  1   force =     0.10835259    0.00000000    0.00000000
     atom    2 type  1   force =    -0.10753409    0.00000000    0.00000000
     The ionic contribution  to forces
     atom    1 type  1   force =    -0.96817471    0.00000000   -0.00000000
     atom    2 type  1   force =     0.96817471    0.00000000   -0.00000000
     The local contribution  to forces
     atom    1 type  1   force =     0.88219255    0.00000000    0.00000000
     atom    2 type  1   force =    -0.88209287    0.00000000    0.00000000
     The core correction contribution to forces
     atom    1 type  1   force =     0.00000000    0.00000000    0.00000000
     atom    2 type  1   force =     0.00000000    0.00000000    0.00000000
     The Hubbard contrib.    to forces
     atom    1 type  1   force =     0.00000000    0.00000000    0.00000000
     atom    2 type  1   force =     0.00000000    0.00000000    0.00000000
     The SCF correction term to forces
     atom    1 type  1   force =    -0.00001173   -0.00000000    0.00000000
     atom    2 type  1   force =     0.00001368   -0.00000000   -0.00000000

     Total force =     0.030969     Total SCF correction =     0.000018
     Energy error            =      3.8E-06 Ry
     Gradient error          =      2.2E-02 Ry/Bohr

     number of scf cycles    =   7
     number of bfgs steps    =   2

     energy             old  =      -2.3179122013 Ry
     energy             new  =      -2.3179084325 Ry

     CASE: energy            _new > energy            _old

     new trust radius        =       0.0005924456 bohr
     new conv_thr            =       0.0000000018 Ry


ATOMIC_POSITIONS (angstrom)
H             0.0194502038        0.0000000000        0.0000000000
H             0.7805497962        0.0000000000        0.0000000000



     Writing config-only to output data dir ./.save/
     NEW-OLD atomic charge density approx. for the potential

     negative rho (up, down):  4.450E-02 0.000E+00

     total cpu time spent up to now is       31.3 secs

     Self-consistent Calculation

     iteration #  1     ecut=    25.00 Ry     beta= 0.70
     Davidson diagonalization with overlap

---- Real-time Memory Report at c_bands before calling an iterative solver
           370 MiB given to the printing process from OS
             0 MiB allocation reported by mallinfo(arena+hblkhd)
           368 MiB available memory on the node where the printing process lives
------------------
     ethr =  1.00E-06,  avg # of iterations =  2.0

     Threshold (ethr) on eigenvalues was too large:
     Diagonalizing with lowered threshold

     Davidson diagonalization with overlap

---- Real-time Memory Report at c_bands before calling an iterative solver
           370 MiB given to the printing process from OS
             0 MiB allocation reported by mallinfo(arena+hblkhd)
           369 MiB available memory on the node where the printing process lives
------------------
     ethr =  6.89E-09,  avg # of iterations =  1.0

     negative rho (up, down):  4.446E-02 0.000E+00

     total cpu time spent up to now is       32.3 secs

     total energy              =      -2.31790818 Ry
     estimated scf accuracy    <       0.00000015 Ry

     iteration #  2     ecut=    25.00 Ry     beta= 0.70
     Davidson diagonalization with overlap

---- Real-time Memory Report at c_bands before calling an iterative solver
           370 MiB given to the printing process from OS
             0 MiB allocation reported by mallinfo(arena+hblkhd)
           244 MiB available memory on the node where the printing process lives
------------------
     ethr =  7.48E-09,  avg # of iterations =  2.0

     negative rho (up, down):  4.446E-02 0.000E+00

     total cpu time spent up to now is       33.1 secs

     total energy              =      -2.31791441 Ry
     estimated scf accuracy    <          1.9E-09 Ry

     iteration #  3     ecut=    25.00 Ry     beta= 0.70
     Davidson diagonalization with overlap

---- Real-time Memory Report at c_bands before calling an iterative solver
           370 MiB given to the printing process from OS
             0 MiB allocation reported by mallinfo(arena+hblkhd)
           230 MiB available memory on the node where the printing process lives
------------------
     ethr =  9.47E-11,  avg # of iterations =  3.0

     negative rho (up, down):  4.446E-02 0.000E+00

     total cpu time spent up to now is       33.8 secs

     End of self-consistent calculation

          k =-0.5000-0.5000-0.5000 ( 57016 PWs)   bands (ev):

   -10.3289  -1.1147

     occupation numbers 
     1.0000   0.0000

     highest occupied, lowest unoccupied level (ev):   -10.3289   -1.1147

!    total energy              =      -2.31791098 Ry
     estimated scf accuracy    <          1.7E-10 Ry

     The total energy is the sum of the following terms:
     one-electron contribution =      -4.17858596 Ry
     hartree contribution      =       2.22470030 Ry
     xc contribution           =      -1.37660069 Ry
     ewald contribution        =       1.01257537 Ry

     convergence has been achieved in   3 iterations

     Forces acting on atoms (cartesian axes, Ry/au):

     atom    1 type  1   force =     0.02296964    0.00000000    0.00000000
     atom    2 type  1   force =    -0.02296964    0.00000000    0.00000000
     The non-local contrib.  to forces
     atom    1 type  1   force =     0.10830713    0.00000000    0.00000000
     atom    2 type  1   force =    -0.10758528    0.00000000    0.00000000
     The ionic contribution  to forces
     atom    1 type  1   force =    -0.96637883    0.00000000   -0.00000000
     atom    2 type  1   force =     0.96637883    0.00000000   -0.00000000
     The local contribution  to forces
     atom    1 type  1   force =     0.88145235    0.00000000    0.00000000
     atom    2 type  1   force =    -0.88136892    0.00000000    0.00000000
     The core correction contribution to forces
     atom    1 type  1   force =     0.00000000    0.00000000    0.00000000
     atom    2 type  1   force =     0.00000000    0.00000000    0.00000000
     The Hubbard contrib.    to forces
     atom    1 type  1   force =     0.00000000    0.00000000    0.00000000
     atom    2 type  1   force =     0.00000000    0.00000000    0.00000000
     The SCF correction term to forces
     atom    1 type  1   force =    -0.00002552    0.00000000    0.00000000
     atom    2 type  1   force =    -0.00000877    0.00000000    0.00000000

     Total force =     0.032484     Total SCF correction =     0.000027
     Energy error            =      1.2E-06 Ry
     Gradient error          =      2.3E-02 Ry/Bohr

     number of scf cycles    =   8
     number of bfgs steps    =   2

     energy             old  =      -2.3179122013 Ry
     energy             new  =      -2.3179109789 Ry

     CASE: energy            _new > energy            _old

     new trust radius        =       0.0002839375 bohr
     new conv_thr            =       0.0000000018 Ry


ATOMIC_POSITIONS (angstrom)
H             0.0192869483        0.0000000000        0.0000000000
H             0.7807130517        0.0000000000        0.0000000000



     Writing config-only to output data dir ./.save/
     NEW-OLD atomic charge density approx. for the potential

     negative rho (up, down):  4.445E-02 0.000E+00

     total cpu time spent up to now is       34.6 secs

     Self-consistent Calculation

     iteration #  1     ecut=    25.00 Ry     beta= 0.70
     Davidson diagonalization with overlap

---- Real-time Memory Report at c_bands before calling an iterative solver
           370 MiB given to the printing process from OS
             0 MiB allocation reported by mallinfo(arena+hblkhd)
           368 MiB available memory on the node where the printing process lives
------------------
     ethr =  1.00E-06,  avg # of iterations =  2.0

     Threshold (ethr) on eigenvalues was too large:
     Diagonalizing with lowered threshold

     Davidson diagonalization with overlap

---- Real-time Memory Report at c_bands before calling an iterative solver
           370 MiB given to the printing process from OS
             0 MiB allocation reported by mallinfo(arena+hblkhd)
           369 MiB available memory on the node where the printing process lives
------------------
     ethr =  1.54E-09,  avg # of iterations =  1.0

     negative rho (up, down):  4.444E-02 0.000E+00

     total cpu time spent up to now is       35.6 secs

     total energy              =      -2.31790989 Ry
     estimated scf accuracy    <       0.00000003 Ry

     iteration #  2     ecut=    25.00 Ry     beta= 0.70
     Davidson diagonalization with overlap

---- Real-time Memory Report at c_bands before calling an iterative solver
           370 MiB given to the printing process from OS
             0 MiB allocation reported by mallinfo(arena+hblkhd)
           243 MiB available memory on the node where the printing process lives
------------------
     ethr =  1.75E-09,  avg # of iterations =  2.0

     negative rho (up, down):  4.444E-02 0.000E+00

     total cpu time spent up to now is       36.3 secs

     End of self-consistent calculation

          k =-0.5000-0.5000-0.5000 ( 57016 PWs)   bands (ev):

   -10.3273  -1.1143

     occupation numbers 
     1.0000   0.0000

     highest occupied, lowest unoccupied level (ev):   -10.3273   -1.1143

!    total energy              =      -2.31790561 Ry
     estimated scf accuracy    <          3.7E-10 Ry

     The total energy is the sum of the following terms:
     one-electron contribution =      -4.17775547 Ry
     hartree contribution      =       2.22425820 Ry
     xc contribution           =      -1.37638769 Ry
     ewald contribution        =       1.01197935 Ry

     convergence has been achieved in   2 iterations

     Forces acting on atoms (cartesian axes, Ry/au):

     atom    1 type  1   force =     0.02344264    0.00000000    0.00000000
     atom    2 type  1   force =    -0.02344264    0.00000000    0.00000000
     The non-local contrib.  to forces
     atom    1 type  1   force =     0.10832730    0.00000000    0.00000000
     atom    2 type  1   force =    -0.10754945    0.00000000    0.00000000
     The ionic contribution  to forces
     atom    1 type  1   force =    -0.96554963    0.00000000   -0.00000000
     atom    2 type  1   force =     0.96554963    0.00000000   -0.00000000
     The local contribution  to forces
     atom    1 type  1   force =     0.88110805    0.00000000    0.00000000
     atom    2 type  1   force =    -0.88102653    0.00000000    0.00000000
     The core correction contribution to forces
     atom    1 type  1   force =     0.00000000    0.00000000    0.00000000
     atom    2 type  1   force =     0.00000000    0.00000000    0.00000000
     The Hubbard contrib.    to forces
     atom    1 type  1   force =     0.00000000    0.00000000    0.00000000
     atom    2 type  1   force =     0.00000000    0.00000000    0.00000000
     The SCF correction term to forces
     atom    1 type  1   force =    -0.00003004   -0.00000000    0.00000000
     atom    2 type  1   force =    -0.00000326   -0.00000000   -0.00000000

     Total force =     0.033153     Total SCF correction =     0.000030
     Energy error            =      6.6E-06 Ry
     Gradient error          =      2.3E-02 Ry/Bohr

     number of scf cycles    =   9
     number of bfgs steps    =   2

     energy             old  =      -2.3179122013 Ry
     energy             new  =      -2.3179056079 Ry

     CASE: energy            _new > energy            _old

     new trust radius        =       0.0000954770 bohr

     trust_radius < trust_radius_min

     resetting bfgs history

     new conv_thr            =       0.0000000018 Ry


ATOMIC_POSITIONS (angstrom)
H             0.0317544323        0.0000000000        0.0000000000
H             0.7682455677        0.0000000000        0.0000000000



     Writing config-only to output data dir ./.save/
     NEW-OLD atomic charge density approx. for the potential

     negative rho (up, down):  4.438E-02 0.000E+00

     total cpu time spent up to now is       37.1 secs

     Self-consistent Calculation

     iteration #  1     ecut=    25.00 Ry     beta= 0.70
     Davidson diagonalization with overlap

---- Real-time Memory Report at c_bands before calling an iterative solver
           370 MiB given to the printing process from OS
             0 MiB allocation reported by mallinfo(arena+hblkhd)
           368 MiB available memory on the node where the printing process lives
------------------
     ethr =  1.00E-06,  avg # of iterations =  4.0

     negative rho (up, down):  4.547E-02 0.000E+00

     total cpu time spent up to now is       38.0 secs

     total energy              =      -2.31733211 Ry
     estimated scf accuracy    <       0.00017732 Ry

     iteration #  2     ecut=    25.00 Ry     beta= 0.70
     Davidson diagonalization with overlap

---- Real-time Memory Report at c_bands before calling an iterative solver
           370 MiB given to the printing process from OS
             0 MiB allocation reported by mallinfo(arena+hblkhd)
           243 MiB available memory on the node where the printing process lives
------------------
     ethr =  8.87E-06,  avg # of iterations =  1.0

     negative rho (up, down):  4.571E-02 0.000E+00

     total cpu time spent up to now is       38.7 secs

     total energy              =      -2.31718349 Ry
     estimated scf accuracy    <       0.00000208 Ry

     iteration #  3     ecut=    25.00 Ry     beta= 0.70
     Davidson diagonalization with overlap

---- Real-time Memory Report at c_bands before calling an iterative solver
           370 MiB given to the printing process from OS
             0 MiB allocation reported by mallinfo(arena+hblkhd)
           230 MiB available memory on the node where the printing process lives
------------------
     ethr =  1.04E-07,  avg # of iterations =  2.0

     negative rho (up, down):  4.575E-02 0.000E+00

     total cpu time spent up to now is       39.5 secs

     total energy              =      -2.31714812 Ry
     estimated scf accuracy    <       0.00000008 Ry

     iteration #  4     ecut=    25.00 Ry     beta= 0.70
     Davidson diagonalization with overlap

---- Real-time Memory Report at c_bands before calling an iterative solver
           370 MiB given to the printing process from OS
             0 MiB allocation reported by mallinfo(arena+hblkhd)
           216 MiB available memory on the node where the printing process lives
------------------
     ethr =  4.24E-09,  avg # of iterations =  2.0

     negative rho (up, down):  4.575E-02 0.000E+00

     total cpu time spent up to now is       40.2 secs

     End of self-consistent calculation

          k =-0.5000-0.5000-0.5000 ( 57016 PWs)   bands (ev):

   -10.4520  -1.1430

     occupation numbers 
     1.0000   0.0000

     highest occupied, lowest unoccupied level (ev):   -10.4520   -1.1430

!    total energy              =      -2.31715177 Ry
     estimated scf accuracy    <          3.9E-10 Ry

     The total energy is the sum of the following terms:
     one-electron contribution =      -4.24180649 Ry
     hartree contribution      =       2.25785786 Ry
     xc contribution           =      -1.39222088 Ry
     ewald contribution        =       1.05901774 Ry

     convergence has been achieved in   4 iterations

     Forces acting on atoms (cartesian axes, Ry/au):

     atom    1 type  1   force =    -0.01671706    0.00000000    0.00000000
     atom    2 type  1   force =     0.01671706    0.00000000    0.00000000
     The non-local contrib.  to forces
     atom    1 type  1   force =     0.10871529    0.00000000    0.00000000
     atom    2 type  1   force =    -0.10818263    0.00000000    0.00000000
     The ionic contribution  to forces
     atom    1 type  1   force =    -1.03208241    0.00000000   -0.00000000
     atom    2 type  1   force =     1.03208241    0.00000000   -0.00000000
     The local contribution  to forces
     atom    1 type  1   force =     0.90696960    0.00000000    0.00000000
     atom    2 type  1   force =    -0.90686553    0.00000000    0.00000000
     The core correction contribution to forces
     atom    1 type  1   force =     0.00000000    0.00000000    0.00000000
     atom    2 type  1   force =     0.00000000    0.00000000    0.00000000
     The Hubbard contrib.    to forces
     atom    1 type  1   force =     0.00000000    0.00000000    0.00000000
     atom    2 type  1   force =     0.00000000    0.00000000    0.00000000
     The SCF correction term to forces
     atom    1 type  1   force =     0.00000885    0.00000000    0.00000000
     atom    2 type  1   force =     0.00001120   -0.00000000    0.00000000

     Total force =     0.023641     Total SCF correction =     0.000014
     Energy error            =      7.6E-04 Ry
     Gradient error          =      1.7E-02 Ry/Bohr

     number of scf cycles    =  10
     number of bfgs steps    =   2

     energy             old  =      -2.3179122013 Ry
     energy             new  =      -2.3171517746 Ry

     CASE: energy            _new > energy            _old

     new trust radius        =       0.0071442709 bohr
     new conv_thr            =       0.0000000018 Ry


ATOMIC_POSITIONS (angstrom)
H             0.0229172804        0.0000000000        0.0000000000
H             0.7770827196        0.0000000000        0.0000000000



     Writing config-only to output data dir ./.save/
     NEW-OLD atomic charge density approx. for the potential

     negative rho (up, down):  4.575E-02 0.000E+00

     total cpu time spent up to now is       41.0 secs

     Self-consistent Calculation

     iteration #  1     ecut=    25.00 Ry     beta= 0.70
     Davidson diagonalization with overlap

---- Real-time Memory Report at c_bands before calling an iterative solver
           370 MiB given to the printing process from OS
             0 MiB allocation reported by mallinfo(arena+hblkhd)
           368 MiB available memory on the node where the printing process lives
------------------
     ethr =  1.00E-06,  avg # of iterations =  3.0

     negative rho (up, down):  4.502E-02 0.000E+00

     total cpu time spent up to now is       41.9 secs

     total energy              =      -2.31770807 Ry
     estimated scf accuracy    <       0.00008968 Ry

     iteration #  2     ecut=    25.00 Ry     beta= 0.70
     Davidson diagonalization with overlap

---- Real-time Memory Report at c_bands before calling an iterative solver
           370 MiB given to the printing process from OS
             0 MiB allocation reported by mallinfo(arena+hblkhd)
           243 MiB available memory on the node where the printing process lives
------------------
     ethr =  4.48E-06,  avg # of iterations =  1.0

     negative rho (up, down):  4.487E-02 0.000E+00

     total cpu time spent up to now is       42.6 secs

     total energy              =      -2.31782584 Ry
     estimated scf accuracy    <       0.00000113 Ry

     iteration #  3     ecut=    25.00 Ry     beta= 0.70
     Davidson diagonalization with overlap

---- Real-time Memory Report at c_bands before calling an iterative solver
           370 MiB given to the printing process from OS
             0 MiB allocation reported by mallinfo(arena+hblkhd)
           230 MiB available memory on the node where the printing process lives
------------------
     ethr =  5.63E-08,  avg # of iterations =  2.0

     negative rho (up, down):  4.485E-02 0.000E+00

     total cpu time spent up to now is       43.4 secs

     total energy              =      -2.31785512 Ry
     estimated scf accuracy    <       0.00000005 Ry

     iteration #  4     ecut=    25.00 Ry     beta= 0.70
     Davidson diagonalization with overlap

---- Real-time Memory Report at c_bands before calling an iterative solver
           370 MiB given to the printing process from OS
             0 MiB allocation reported by mallinfo(arena+hblkhd)
           216 MiB available memory on the node where the printing process lives
------------------
     ethr =  2.36E-09,  avg # of iterations =  2.0

     negative rho (up, down):  4.485E-02 0.000E+00

     total cpu time spent up to now is       44.1 secs

     End of self-consistent calculation

          k =-0.5000-0.5000-0.5000 ( 57016 PWs)   bands (ev):

   -10.3630  -1.1302

     occupation numbers 
     1.0000   0.0000

     highest occupied, lowest unoccupied level (ev):   -10.3630   -1.1302

!    total energy              =      -2.31784973 Ry
     estimated scf accuracy    <          8.4E-10 Ry

     The total energy is the sum of the following terms:
     one-electron contribution =      -4.19621493 Ry
     hartree contribution      =       2.23395069 Ry
     xc contribution           =      -1.38094046 Ry
     ewald contribution        =       1.02535497 Ry

     convergence has been achieved in   4 iterations

     Forces acting on atoms (cartesian axes, Ry/au):

     atom    1 type  1   force =     0.01236325    0.00000000    0.00000000
     atom    2 type  1   force =    -0.01236325    0.00000000    0.00000000
     The non-local contrib.  to forces
     atom    1 type  1   force =     0.10852103    0.00000000    0.00000000
     atom    2 type  1   force =    -0.10762733    0.00000000    0.00000000
     The ionic contribution  to forces
     atom    1 type  1   force =    -0.98424366    0.00000000   -0.00000000
     atom    2 type  1   force =     0.98424366    0.00000000   -0.00000000
     The local contribution  to forces
     atom    1 type  1   force =     0.88859713    0.00000000    0.00000000
     atom    2 type  1   force =    -0.88849926    0.00000000    0.00000000
     The core correction contribution to forces
     atom    1 type  1   force =     0.00000000    0.00000000    0.00000000
     atom    2 type  1   force =     0.00000000    0.00000000    0.00000000
     The Hubbard contrib.    to forces
     atom    1 type  1   force =     0.00000000    0.00000000    0.00000000
     atom    2 type  1   force =     0.00000000    0.00000000    0.00000000
     The SCF correction term to forces
     atom    1 type  1   force =     0.00010693   -0.00000000   -0.00000000
     atom    2 type  1   force =     0.00013786    0.00000000    0.00000000

     Total force =     0.017484     Total SCF correction =     0.000174
     Energy error            =      6.2E-05 Ry
     Gradient error          =      1.2E-02 Ry/Bohr

     number of scf cycles    =  11
     number of bfgs steps    =   2

     energy             old  =      -2.3179122013 Ry
     energy             new  =      -2.3178497327 Ry

     CASE: energy            _new > energy            _old

     new trust radius        =       0.0030186501 bohr
     new conv_thr            =       0.0000000018 Ry


ATOMIC_POSITIONS (angstrom)
H             0.0207340959        0.0000000000        0.0000000000
H             0.7792659041        0.0000000000        0.0000000000



     Writing config-only to output data dir ./.save/
     NEW-OLD atomic charge density approx. for the potential

     negative rho (up, down):  4.483E-02 0.000E+00

     total cpu time spent up to now is       44.9 secs

     Self-consistent Calculation

     iteration #  1     ecut=    25.00 Ry     beta= 0.70
     Davidson diagonalization with overlap

---- Real-time Memory Report at c_bands before calling an iterative solver
           370 MiB given to the printing process from OS
             0 MiB allocation reported by mallinfo(arena+hblkhd)
           368 MiB available memory on the node where the printing process lives
------------------
     ethr =  1.00E-06,  avg # of iterations =  2.0

     negative rho (up, down):  4.466E-02 0.000E+00

     total cpu time spent up to now is       45.7 secs

     total energy              =      -2.31786733 Ry
     estimated scf accuracy    <       0.00000480 Ry

     iteration #  2     ecut=    25.00 Ry     beta= 0.70
     Davidson diagonalization with overlap

---- Real-time Memory Report at c_bands before calling an iterative solver
           370 MiB given to the printing process from OS
             0 MiB allocation reported by mallinfo(arena+hblkhd)
           243 MiB available memory on the node where the printing process lives
------------------
     ethr =  2.40E-07,  avg # of iterations =  1.0

     negative rho (up, down):  4.461E-02 0.000E+00

     total cpu time spent up to now is       46.4 secs

     total energy              =      -2.31790432 Ry
     estimated scf accuracy    <       0.00000015 Ry

     iteration #  3     ecut=    25.00 Ry     beta= 0.70
     Davidson diagonalization with overlap

---- Real-time Memory Report at c_bands before calling an iterative solver
           370 MiB given to the printing process from OS
             0 MiB allocation reported by mallinfo(arena+hblkhd)
           230 MiB available memory on the node where the printing process lives
------------------
     ethr =  7.62E-09,  avg # of iterations =  2.0

     negative rho (up, down):  4.461E-02 0.000E+00

     total cpu time spent up to now is       47.2 secs

     total energy              =      -2.31790351 Ry
     estimated scf accuracy    <       0.00000001 Ry

     iteration #  4     ecut=    25.00 Ry     beta= 0.70
     Davidson diagonalization with overlap

---- Real-time Memory Report at c_bands before calling an iterative solver
           370 MiB given to the printing process from OS
             0 MiB allocation reported by mallinfo(arena+hblkhd)
           216 MiB available memory on the node where the printing process lives
------------------
     ethr =  7.45E-10,  avg # of iterations =  3.0

     negative rho (up, down):  4.461E-02 0.000E+00

     total cpu time spent up to now is       48.0 secs

     total energy              =      -2.31790913 Ry
     estimated scf accuracy    <       0.00000002 Ry

     iteration #  5     ecut=    25.00 Ry     beta= 0.70
     Davidson diagonalization with overlap

---- Real-time Memory Report at c_bands before calling an iterative solver
           370 MiB given to the printing process from OS
             0 MiB allocation reported by mallinfo(arena+hblkhd)
           202 MiB available memory on the node where the printing process lives
------------------
     ethr =  7.45E-10,  avg # of iterations =  3.0

     negative rho (up, down):  4.461E-02 0.000E+00

     total cpu time spent up to now is       48.7 secs

     End of self-consistent calculation

          k =-0.5000-0.5000-0.5000 ( 57016 PWs)   bands (ev):

   -10.3413  -1.1218

     occupation numbers 
     1.0000   0.0000

     highest occupied, lowest unoccupied level (ev):   -10.3413   -1.1218

!    total energy              =      -2.31790505 Ry
     estimated scf accuracy    <          1.8E-10 Ry

     The total energy is the sum of the following terms:
     one-electron contribution =      -4.18510805 Ry
     hartree contribution      =       2.22813469 Ry
     xc contribution           =      -1.37821221 Ry
     ewald contribution        =       1.01728052 Ry

     convergence has been achieved in   5 iterations

     Forces acting on atoms (cartesian axes, Ry/au):

     atom    1 type  1   force =     0.01912904    0.00000000    0.00000000
     atom    2 type  1   force =    -0.01912904    0.00000000    0.00000000
     The non-local contrib.  to forces
     atom    1 type  1   force =     0.10848198    0.00000000    0.00000000
     atom    2 type  1   force =    -0.10758804    0.00000000    0.00000000
     The ionic contribution  to forces
     atom    1 type  1   force =    -0.97293726    0.00000000   -0.00000000
     atom    2 type  1   force =     0.97293726   -0.00000000   -0.00000000
     The local contribution  to forces
     atom    1 type  1   force =     0.88410352    0.00000000    0.00000000
     atom    2 type  1   force =    -0.88399951    0.00000000    0.00000000
     The core correction contribution to forces
     atom    1 type  1   force =     0.00000000    0.00000000    0.00000000
     atom    2 type  1   force =     0.00000000    0.00000000    0.00000000
     The Hubbard contrib.    to forces
     atom    1 type  1   force =     0.00000000    0.00000000    0.00000000
     atom    2 type  1   force =     0.00000000    0.00000000    0.00000000
     The SCF correction term to forces
     atom    1 type  1   force =     0.00005121   -0.00000000   -0.00000000
     atom    2 type  1   force =     0.00009166   -0.00000000    0.00000000

     Total force =     0.027053     Total SCF correction =     0.000105
     Energy error            =      7.2E-06 Ry
     Gradient error          =      1.9E-02 Ry/Bohr

     number of scf cycles    =  12
     number of bfgs steps    =   2

     energy             old  =      -2.3179122013 Ry
     energy             new  =      -2.3179050458 Ry

     CASE: energy            _new > energy            _old

     new trust radius        =       0.0014378533 bohr
     new conv_thr            =       0.0000000018 Ry


ATOMIC_POSITIONS (angstrom)
H             0.0198975743        0.0000000000        0.0000000000
H             0.7801024257        0.0000000000        0.0000000000



     Writing config-only to output data dir ./.save/
     NEW-OLD atomic charge density approx. for the potential

     negative rho (up, down):  4.460E-02 0.000E+00

     total cpu time spent up to now is       49.5 secs

     Self-consistent Calculation

     iteration #  1     ecut=    25.00 Ry     beta= 0.70
     Davidson diagonalization with overlap

---- Real-time Memory Report at c_bands before calling an iterative solver
           370 MiB given to the printing process from OS
             0 MiB allocation reported by mallinfo(arena+hblkhd)
           369 MiB available memory on the node where the printing process lives
------------------
     ethr =  1.00E-06,  avg # of iterations =  2.0

     Threshold (ethr) on eigenvalues was too large:
     Diagonalizing with lowered threshold

     Davidson diagonalization with overlap

[...]

     negative rho (up, down):  4.503E-02 0.000E+00

     total cpu time spent up to now is      226.4 secs

     total energy              =      -2.31771426 Ry
     estimated scf accuracy    <       0.00008368 Ry

     iteration #  2     ecut=    25.00 Ry     beta= 0.70
     Davidson diagonalization with overlap

---- Real-time Memory Report at c_bands before calling an iterative solver
           427 MiB given to the printing process from OS
             0 MiB allocation reported by mallinfo(arena+hblkhd)
           244 MiB available memory on the node where the printing process lives
------------------
     ethr =  4.18E-06,  avg # of iterations =  1.0

     negative rho (up, down):  4.488E-02 0.000E+00

     total cpu time spent up to now is      227.1 secs

     total energy              =      -2.31782109 Ry
     estimated scf accuracy    <       0.00000107 Ry

     iteration #  3     ecut=    25.00 Ry     beta= 0.70
     Davidson diagonalization with overlap

---- Real-time Memory Report at c_bands before calling an iterative solver
           427 MiB given to the printing process from OS
             0 MiB allocation reported by mallinfo(arena+hblkhd)
           230 MiB available memory on the node where the printing process lives
------------------
     ethr =  5.36E-08,  avg # of iterations =  2.0

     negative rho (up, down):  4.486E-02 0.000E+00

     total cpu time spent up to now is      227.8 secs

     total energy              =      -2.31784939 Ry
     estimated scf accuracy    <       0.00000004 Ry

     iteration #  4     ecut=    25.00 Ry     beta= 0.70
     Davidson diagonalization with overlap

---- Real-time Memory Report at c_bands before calling an iterative solver
           427 MiB given to the printing process from OS
             0 MiB allocation reported by mallinfo(arena+hblkhd)
           216 MiB available memory on the node where the printing process lives
------------------
     ethr =  2.11E-09,  avg # of iterations =  2.0

     negative rho (up, down):  4.486E-02 0.000E+00

     total cpu time spent up to now is      228.6 secs

     total energy              =      -2.31784533 Ry
     estimated scf accuracy    <          5.3E-10 Ry

     iteration #  5     ecut=    25.00 Ry     beta= 0.70
     Davidson diagonalization with overlap

---- Real-time Memory Report at c_bands before calling an iterative solver
           427 MiB given to the printing process from OS
             0 MiB allocation reported by mallinfo(arena+hblkhd)
           202 MiB available memory on the node where the printing process lives
------------------
     ethr =  2.66E-11,  avg # of iterations =  4.0

     negative rho (up, down):  4.485E-02 0.000E+00

     total cpu time spent up to now is      229.5 secs

     total energy              =      -2.31784628 Ry
     estimated scf accuracy    <          1.9E-09 Ry

     iteration #  6     ecut=    25.00 Ry     beta= 0.70
     Davidson diagonalization with overlap

---- Real-time Memory Report at c_bands before calling an iterative solver
           427 MiB given to the printing process from OS
             0 MiB allocation reported by mallinfo(arena+hblkhd)
           188 MiB available memory on the node where the printing process lives
------------------
     ethr =  2.66E-11,  avg # of iterations =  3.0

     negative rho (up, down):  4.485E-02 0.000E+00

     total cpu time spent up to now is      230.3 secs

     total energy              =      -2.31784701 Ry
     estimated scf accuracy    <          1.8E-10 Ry

     iteration #  7     ecut=    25.00 Ry     beta= 0.70
     Davidson diagonalization with overlap

---- Real-time Memory Report at c_bands before calling an iterative solver
           427 MiB given to the printing process from OS
             0 MiB allocation reported by mallinfo(arena+hblkhd)
           174 MiB available memory on the node where the printing process lives
------------------
     ethr =  8.94E-12,  avg # of iterations =  4.0

     negative rho (up, down):  4.485E-02 0.000E+00

     total cpu time spent up to now is      231.1 secs

     End of self-consistent calculation

          k =-0.5000-0.5000-0.5000 ( 57016 PWs)   bands (ev):

   -10.3645  -1.1312

     occupation numbers 
     1.0000   0.0000

     highest occupied, lowest unoccupied level (ev):   -10.3645   -1.1312

!    total energy              =      -2.31784934 Ry
     estimated scf accuracy    <          1.1E-11 Ry

     The total energy is the sum of the following terms:
     one-electron contribution =      -4.19673324 Ry
     hartree contribution      =       2.23420104 Ry
     xc contribution           =      -1.38106310 Ry
     ewald contribution        =       1.02574597 Ry

     convergence has been achieved in   7 iterations

     Forces acting on atoms (cartesian axes, Ry/au):

     atom    1 type  1   force =     0.01205467    0.00000000    0.00000000
     atom    2 type  1   force =    -0.01205467    0.00000000    0.00000000
     The non-local contrib.  to forces
     atom    1 type  1   force =     0.10848423    0.00000000    0.00000000
     atom    2 type  1   force =    -0.10767343    0.00000000    0.00000000
     The ionic contribution  to forces
     atom    1 type  1   force =    -0.98479281    0.00000000   -0.00000000
     atom    2 type  1   force =     0.98479281   -0.00000000   -0.00000000
     The local contribution  to forces
     atom    1 type  1   force =     0.88881820    0.00000000    0.00000000
     atom    2 type  1   force =    -0.88870429    0.00000000    0.00000000
     The core correction contribution to forces
     atom    1 type  1   force =     0.00000000    0.00000000    0.00000000
     atom    2 type  1   force =     0.00000000    0.00000000    0.00000000
     The Hubbard contrib.    to forces
     atom    1 type  1   force =     0.00000000    0.00000000    0.00000000
     atom    2 type  1   force =     0.00000000    0.00000000    0.00000000
     The SCF correction term to forces
     atom    1 type  1   force =     0.00001501   -0.00000000    0.00000000
     atom    2 type  1   force =     0.00000020   -0.00000000   -0.00000000

     Total force =     0.017048     Total SCF correction =     0.000015
     Energy error            =      6.5E-05 Ry
     Gradient error          =      1.2E-02 Ry/Bohr

     number of scf cycles    =  49
     number of bfgs steps    =   3

     energy             old  =      -2.3179145976 Ry
     energy             new  =      -2.3178493405 Ry

     CASE: energy            _new > energy            _old

     new trust radius        =       0.0027422683 bohr
     new conv_thr            =            1.0E-10 Ry


ATOMIC_POSITIONS (angstrom)
H             0.0209482148        0.0000000000        0.0000000000
H             0.7790517852        0.0000000000        0.0000000000



     Writing config-only to output data dir ./.save/
     NEW-OLD atomic charge density approx. for the potential

     negative rho (up, down):  4.484E-02 0.000E+00

     total cpu time spent up to now is      231.9 secs

     Self-consistent Calculation

     iteration #  1     ecut=    25.00 Ry     beta= 0.70
     Davidson diagonalization with overlap

---- Real-time Memory Report at c_bands before calling an iterative solver
           427 MiB given to the printing process from OS
             0 MiB allocation reported by mallinfo(arena+hblkhd)
           369 MiB available memory on the node where the printing process lives
------------------
     ethr =  1.00E-06,  avg # of iterations =  2.0

     negative rho (up, down):  4.468E-02 0.000E+00

     total cpu time spent up to now is      232.6 secs

     total energy              =      -2.31787193 Ry
     estimated scf accuracy    <       0.00000428 Ry

     iteration #  2     ecut=    25.00 Ry     beta= 0.70
     Davidson diagonalization with overlap

---- Real-time Memory Report at c_bands before calling an iterative solver
           427 MiB given to the printing process from OS
             0 MiB allocation reported by mallinfo(arena+hblkhd)
           244 MiB available memory on the node where the printing process lives
------------------
     ethr =  2.14E-07,  avg # of iterations =  1.0

     negative rho (up, down):  4.463E-02 0.000E+00

     total cpu time spent up to now is      233.4 secs

     total energy              =      -2.31790020 Ry
     estimated scf accuracy    <       0.00000014 Ry

     iteration #  3     ecut=    25.00 Ry     beta= 0.70
     Davidson diagonalization with overlap

---- Real-time Memory Report at c_bands before calling an iterative solver
           427 MiB given to the printing process from OS
             0 MiB allocation reported by mallinfo(arena+hblkhd)
           230 MiB available memory on the node where the printing process lives
------------------
     ethr =  7.09E-09,  avg # of iterations =  2.0

     negative rho (up, down):  4.463E-02 0.000E+00

     total cpu time spent up to now is      234.1 secs

     total energy              =      -2.31790141 Ry
     estimated scf accuracy    <       0.00000001 Ry

     iteration #  4     ecut=    25.00 Ry     beta= 0.70
     Davidson diagonalization with overlap

---- Real-time Memory Report at c_bands before calling an iterative solver
           427 MiB given to the printing process from OS
             0 MiB allocation reported by mallinfo(arena+hblkhd)
           216 MiB available memory on the node where the printing process lives
------------------
     ethr =  5.50E-10,  avg # of iterations =  3.0

     negative rho (up, down):  4.463E-02 0.000E+00

     total cpu time spent up to now is      234.9 secs

     total energy              =      -2.31790542 Ry
     estimated scf accuracy    <          4.9E-09 Ry

     iteration #  5     ecut=    25.00 Ry     beta= 0.70
     Davidson diagonalization with overlap

---- Real-time Memory Report at c_bands before calling an iterative solver
           427 MiB given to the printing process from OS
             0 MiB allocation reported by mallinfo(arena+hblkhd)
           202 MiB available memory on the node where the printing process lives
------------------
     ethr =  2.47E-10,  avg # of iterations =  2.0

     negative rho (up, down):  4.463E-02 0.000E+00

     total cpu time spent up to now is      235.7 secs

     total energy              =      -2.31790031 Ry
     estimated scf accuracy    <          6.5E-10 Ry

     iteration #  6     ecut=    25.00 Ry     beta= 0.70
     Davidson diagonalization with overlap

---- Real-time Memory Report at c_bands before calling an iterative solver
           427 MiB given to the printing process from OS
             0 MiB allocation reported by mallinfo(arena+hblkhd)
           188 MiB available memory on the node where the printing process lives
------------------
     ethr =  3.27E-11,  avg # of iterations =  4.0

     negative rho (up, down):  4.463E-02 0.000E+00

     total cpu time spent up to now is      236.5 secs

     total energy              =      -2.31790509 Ry
     estimated scf accuracy    <          1.2E-09 Ry

     iteration #  7     ecut=    25.00 Ry     beta= 0.70
     Davidson diagonalization with overlap

---- Real-time Memory Report at c_bands before calling an iterative solver
           427 MiB given to the printing process from OS
             0 MiB allocation reported by mallinfo(arena+hblkhd)
           174 MiB available memory on the node where the printing process lives
------------------
     ethr =  3.27E-11,  avg # of iterations =  4.0

     negative rho (up, down):  4.463E-02 0.000E+00

     total cpu time spent up to now is      237.4 secs

     total energy              =      -2.31790522 Ry
     estimated scf accuracy    <          1.3E-10 Ry

     iteration #  8     ecut=    25.00 Ry     beta= 0.70
     Davidson diagonalization with overlap

---- Real-time Memory Report at c_bands before calling an iterative solver
           427 MiB given to the printing process from OS
             0 MiB allocation reported by mallinfo(arena+hblkhd)
           160 MiB available memory on the node where the printing process lives
------------------
     ethr =  6.52E-12,  avg # of iterations =  1.0

     negative rho (up, down):  4.463E-02 0.000E+00

     total cpu time spent up to now is      238.2 secs

     total energy              =      -2.31790695 Ry
     estimated scf accuracy    <          1.5E-10 Ry

     iteration #  9     ecut=    25.00 Ry     beta= 0.70
     Davidson diagonalization with overlap

---- Real-time Memory Report at c_bands before calling an iterative solver
           427 MiB given to the printing process from OS
             0 MiB allocation reported by mallinfo(arena+hblkhd)
           146 MiB available memory on the node where the printing process lives
------------------
     ethr =  6.52E-12,  avg # of iterations =  2.0

     negative rho (up, down):  4.463E-02 0.000E+00

     total cpu time spent up to now is      239.0 secs

     total energy              =      -2.31790511 Ry
     estimated scf accuracy    <          1.2E-10 Ry

     iteration # 10     ecut=    25.00 Ry     beta= 0.70
     Davidson diagonalization with overlap

---- Real-time Memory Report at c_bands before calling an iterative solver
           427 MiB given to the printing process from OS
             0 MiB allocation reported by mallinfo(arena+hblkhd)
           132 MiB available memory on the node where the printing process lives
------------------
     ethr =  6.02E-12,  avg # of iterations =  2.0

     negative rho (up, down):  4.463E-02 0.000E+00

     total cpu time spent up to now is      239.7 secs

     End of self-consistent calculation

          k =-0.5000-0.5000-0.5000 ( 57016 PWs)   bands (ev):

   -10.3436  -1.1224

     occupation numbers 
     1.0000   0.0000

     highest occupied, lowest unoccupied level (ev):   -10.3436   -1.1224

!    total energy              =      -2.31790064 Ry
     estimated scf accuracy    <          7.1E-11 Ry

     The total energy is the sum of the following terms:
     one-electron contribution =      -4.18620318 Ry
     hartree contribution      =       2.22871983 Ry
     xc contribution           =      -1.37848560 Ry
     ewald contribution        =       1.01806832 Ry

     convergence has been achieved in  10 iterations

     Forces acting on atoms (cartesian axes, Ry/au):

     atom    1 type  1   force =     0.01850133    0.00000000    0.00000000
     atom    2 type  1   force =    -0.01850133    0.00000000    0.00000000
     The non-local contrib.  to forces
     atom    1 type  1   force =     0.10849029    0.00000000    0.00000000
     atom    2 type  1   force =    -0.10763015    0.00000000    0.00000000
     The ionic contribution  to forces
     atom    1 type  1   force =    -0.97403752   -0.00000000   -0.00000000
     atom    2 type  1   force =     0.97403752   -0.00000000   -0.00000000
     The local contribution  to forces
     atom    1 type  1   force =     0.88455678    0.00000000    0.00000000
     atom    2 type  1   force =    -0.88444304    0.00000000    0.00000000
     The core correction contribution to forces
     atom    1 type  1   force =     0.00000000    0.00000000    0.00000000
     atom    2 type  1   force =     0.00000000    0.00000000    0.00000000
     The Hubbard contrib.    to forces
     atom    1 type  1   force =     0.00000000    0.00000000    0.00000000
     atom    2 type  1   force =     0.00000000    0.00000000    0.00000000
     The SCF correction term to forces
     atom    1 type  1   force =     0.00004224    0.00000000    0.00000000
     atom    2 type  1   force =     0.00008481   -0.00000000    0.00000000

     Total force =     0.026165     Total SCF correction =     0.000095
     Energy error            =      1.4E-05 Ry
     Gradient error          =      1.9E-02 Ry/Bohr

     number of scf cycles    =  50
     number of bfgs steps    =   3

     energy             old  =      -2.3179145976 Ry
     energy             new  =      -2.3179006390 Ry

     CASE: energy            _new > energy            _old

     new trust radius        =       0.0012335403 bohr

     The maximum number of steps has been reached.

     End of BFGS Geometry Optimization

ATOMIC_POSITIONS (angstrom)
H             0.0201498303        0.0000000000        0.0000000000
H             0.7798501697        0.0000000000        0.0000000000



     Writing config-only to output data dir ./.save/
     NEW-OLD atomic charge density approx. for the potential

     negative rho (up, down):  4.462E-02 0.000E+00

     Writing all to output data dir ./.save/

     init_run     :      0.79s CPU      0.82s WALL (       1 calls)
     electrons    :    199.48s CPU    201.31s WALL (      50 calls)
     update_pot   :     24.54s CPU     25.08s WALL (      50 calls)
     forces       :      9.53s CPU      9.74s WALL (      50 calls)

     Called by init_run:
     wfcinit      :      0.07s CPU      0.07s WALL (       1 calls)
     wfcinit:atom :      0.00s CPU      0.00s WALL (       1 calls)
     wfcinit:wfcr :      0.06s CPU      0.06s WALL (       1 calls)
     potinit      :      0.46s CPU      0.48s WALL (       1 calls)
     hinit0       :      0.04s CPU      0.04s WALL (       1 calls)

     Called by electrons:
     c_bands      :     44.31s CPU     44.35s WALL (     273 calls)
     sum_band     :     27.64s CPU     27.93s WALL (     273 calls)
     v_of_rho     :    123.53s CPU    124.14s WALL (     301 calls)
     v_h          :      7.65s CPU      7.66s WALL (     301 calls)
     v_xc         :    115.88s CPU    116.48s WALL (     301 calls)
     newd         :      9.61s CPU      9.63s WALL (     301 calls)
     mix_rho      :     12.62s CPU     13.53s WALL (     273 calls)

     Called by c_bands:
     init_us_2    :      0.84s CPU      0.84s WALL (     547 calls)
     init_us_2:cp :      0.83s CPU      0.84s WALL (     547 calls)
     cegterg      :     43.74s CPU     43.78s WALL (     273 calls)

     Called by sum_band:
     sum_band:wei :      0.00s CPU      0.00s WALL (     273 calls)
     sum_band:loo :      8.14s CPU      8.15s WALL (     273 calls)
     sum_band:buf :      0.00s CPU      0.00s WALL (     273 calls)
     sum_band:ini :      0.43s CPU      0.43s WALL (     273 calls)
     sum_band:cal :      0.11s CPU      0.11s WALL (     273 calls)
     sum_band:bec :      0.00s CPU      0.00s WALL (     273 calls)
     addusdens    :      2.64s CPU      2.83s WALL (     273 calls)
     addusd:skk   :      0.74s CPU      0.81s WALL (     273 calls)
     addusd:dgemm :      0.57s CPU      0.61s WALL (     273 calls)
     addusd:qvan2 :      0.68s CPU      0.72s WALL (     273 calls)

     Called by *egterg:
     cdiaghg      :      0.02s CPU      0.02s WALL (     829 calls)
     cegterg:over :      0.57s CPU      0.57s WALL (     628 calls)
     cegterg:upda :      0.41s CPU      0.41s WALL (     628 calls)
     cegterg:last :      0.79s CPU      0.79s WALL (     556 calls)
     h_psi        :     41.03s CPU     41.05s WALL (     902 calls)
     s_psi        :      0.24s CPU      0.24s WALL (     902 calls)
     g_psi        :      0.19s CPU      0.19s WALL (     628 calls)

     Called by h_psi:
     h_psi:calbec :      0.33s CPU      0.33s WALL (     902 calls)
     vloc_psi     :     40.30s CPU     40.33s WALL (     902 calls)
     add_vuspsi   :      0.26s CPU      0.26s WALL (     902 calls)

     General routines
     calbec       :      0.50s CPU      0.50s WALL (    1375 calls)
     fft          :     67.74s CPU     67.80s WALL (    3484 calls)
     ffts         :      5.51s CPU      5.52s WALL (     273 calls)
     fftw         :     42.69s CPU     42.71s WALL (    3528 calls)


     PWSCF        :   3m57.97s CPU   4m 0.61s WALL


   This run was terminated on:   3:56:46  28Feb2022            

=------------------------------------------------------------------------------=
   JOB DONE.
=------------------------------------------------------------------------------=
