
     Program PWSCF v.7.0 starts on 28Feb2022 at  3: 1: 7 

     This program is part of the open-source Quantum ESPRESSO suite
     for quantum simulation of materials; please cite
         "P. Giannozzi et al., J. Phys.:Condens. Matter 21 395502 (2009);
         "P. Giannozzi et al., J. Phys.:Condens. Matter 29 465901 (2017);
         "P. Giannozzi et al., J. Chem. Phys. 152 154105 (2020);
          URL http://www.quantum-espresso.org", 
     in publications or presentations arising from this work. More details at
     http://www.quantum-espresso.org/quote

     Serial version
     557 MiB available memory on the printing compute node when the environment starts

     Waiting for input...
     Reading input from standard input

     Current dimensions of program PWSCF are:
     Max number of different atomic species (ntypx) = 10
     Max number of k-points (npk) =  40000
     Max angular momentum in pseudopotentials (lmaxx) =  4

     File ./.update deleted, as requested

     File ./.bfgs deleted, as requested

    ============================================================
    |  pseudopotential report for atomic species:  1           |
    |        pseudo potential version   7   3   2              |
    ------------------------------------------------------------
    |  hydrogen            PBE                  exchange-corr  |
    |  z =   1.    zv( 1) =   1.    exfact =   5.00000         |
    |  ifpcor =  0           atomic energy =  -0.91772 Ry      |
    |  index    orbital      occupation    energy              |
    |    1        100           1.00       -0.48               |
    |  rinner =  0.5000                                        |
    |    new generation scheme:                                |
    |    nbeta =  1     kkbeta =  271     rcloc =    0.6000    |
    |    ibeta    l     epsilon   rcut                         |
    |      1       0      -0.48   0.80                         |
    ============================================================

     IMPORTANT: XC functional enforced from input :
     Exchange-correlation= BLYP
                           (   1   3   1   3   0   0   0)
     Any further DFT definition will be discarded
     Please, verify this is what you really want


     G-vector sticks info
     --------------------
     sticks:   dense  smooth     PW     G-vecs:    dense   smooth      PW
     Sum        4281    4281   1185               211657   211657   30551

     Using Slab Decomposition



     bravais-lattice index     =            1
     lattice parameter (alat)  =      30.0000  a.u.
     unit-cell volume          =   27000.0000 (a.u.)^3
     number of atoms/cell      =            2
     number of atomic types    =            1
     number of electrons       =         2.00
     number of Kohn-Sham states=            2
     kinetic-energy cutoff     =      15.0000  Ry
     charge density cutoff     =      60.0000  Ry
     scf convergence threshold =      1.0E-08
     mixing beta               =       0.7000
     number of iterations used =            8  plain     mixing
     energy convergence thresh.=      1.0E-04
     force convergence thresh. =      1.0E-03
     Exchange-correlation= BLYP
                           (   1   3   1   3   0   0   0)
     nstep                     =           50


     celldm(1)=  30.000000  celldm(2)=   0.000000  celldm(3)=   0.000000
     celldm(4)=   0.000000  celldm(5)=   0.000000  celldm(6)=   0.000000

     crystal axes: (cart. coord. in units of alat)
               a(1) = (   1.000000   0.000000   0.000000 )  
               a(2) = (   0.000000   1.000000   0.000000 )  
               a(3) = (   0.000000   0.000000   1.000000 )  

     reciprocal axes: (cart. coord. in units 2 pi/alat)
               b(1) = (  1.000000  0.000000  0.000000 )  
               b(2) = (  0.000000  1.000000  0.000000 )  
               b(3) = (  0.000000  0.000000  1.000000 )  


     PseudoPot. # 1 for hy read from file:
     /root/q-e/pseudo/H_US.van
     MD5 check sum: a9a9bfe98ff56cf4de197d71fc46bb44
     Pseudo is Ultrasoft, Zval =  1.0
     Generated by Vanderbilt code, v. 7.3.2
     Using radial grid of  399 points,  1 beta functions with: 
                l(1) =   0
     Q(r) pseudized with  8 coefficients,  rinner =    0.500

     atomic species   valence    mass     pseudopotential
        H              1.00     1.00784     hy( 1.00)

      8 Sym. Ops. (no inversion) found


                                    s                        frac. trans.

      isym =  1     identity                                     

 cryst.   s( 1) = (     1          0          0      )
                  (     0          1          0      )
                  (     0          0          1      )

 cart.    s( 1) = (  1.0000000  0.0000000  0.0000000 )
                  (  0.0000000  1.0000000  0.0000000 )
                  (  0.0000000  0.0000000  1.0000000 )


      isym =  2     180 deg rotation - cart. axis [1,0,0]        

 cryst.   s( 2) = (     1          0          0      )
                  (     0         -1          0      )
                  (     0          0         -1      )

 cart.    s( 2) = (  1.0000000  0.0000000  0.0000000 )
                  (  0.0000000 -1.0000000  0.0000000 )
                  (  0.0000000  0.0000000 -1.0000000 )


      isym =  3      90 deg rotation - cart. axis [-1,0,0]       

 cryst.   s( 3) = (     1          0          0      )
                  (     0          0         -1      )
                  (     0          1          0      )

 cart.    s( 3) = (  1.0000000  0.0000000  0.0000000 )
                  (  0.0000000  0.0000000  1.0000000 )
                  (  0.0000000 -1.0000000  0.0000000 )


      isym =  4      90 deg rotation - cart. axis [1,0,0]        

 cryst.   s( 4) = (     1          0          0      )
                  (     0          0          1      )
                  (     0         -1          0      )

 cart.    s( 4) = (  1.0000000  0.0000000  0.0000000 )
                  (  0.0000000  0.0000000 -1.0000000 )
                  (  0.0000000  1.0000000  0.0000000 )


      isym =  5     inv. 180 deg rotation - cart. axis [0,0,1]   

 cryst.   s( 5) = (     1          0          0      )
                  (     0          1          0      )
                  (     0          0         -1      )

 cart.    s( 5) = (  1.0000000  0.0000000  0.0000000 )
                  (  0.0000000  1.0000000  0.0000000 )
                  (  0.0000000  0.0000000 -1.0000000 )


      isym =  6     inv. 180 deg rotation - cart. axis [0,1,0]   

 cryst.   s( 6) = (     1          0          0      )
                  (     0         -1          0      )
                  (     0          0          1      )

 cart.    s( 6) = (  1.0000000  0.0000000  0.0000000 )
                  (  0.0000000 -1.0000000  0.0000000 )
                  (  0.0000000  0.0000000  1.0000000 )


      isym =  7     inv. 180 deg rotation - cart. axis [0,1,1]   

 cryst.   s( 7) = (     1          0          0      )
                  (     0          0         -1      )
                  (     0         -1          0      )

 cart.    s( 7) = (  1.0000000  0.0000000  0.0000000 )
                  (  0.0000000  0.0000000 -1.0000000 )
                  (  0.0000000 -1.0000000  0.0000000 )


      isym =  8     inv. 180 deg rotation - cart. axis [0,1,-1]  

 cryst.   s( 8) = (     1          0          0      )
                  (     0          0          1      )
                  (     0          1          0      )

 cart.    s( 8) = (  1.0000000  0.0000000  0.0000000 )
                  (  0.0000000  0.0000000  1.0000000 )
                  (  0.0000000  1.0000000  0.0000000 )


     point group C_4v (4mm) 
     there are  5 classes
     the character table:

       E     2C4   C2    2s_v  2s_d 
A_1    1.00  1.00  1.00  1.00  1.00
A_2    1.00  1.00  1.00 -1.00 -1.00
B_1    1.00 -1.00  1.00  1.00 -1.00
B_2    1.00 -1.00  1.00 -1.00  1.00
E      2.00  0.00 -2.00  0.00  0.00

     the symmetry operations in each class and the name of the first element:

     E        1
          identity                                               
     2C4      3    4
           90 deg rotation - cart. axis [-1,0,0]                 
     C2       2
          180 deg rotation - cart. axis [1,0,0]                  
     2s_v     5    6
          inv. 180 deg rotation - cart. axis [0,0,1]             
     2s_d     7    8
          inv. 180 deg rotation - cart. axis [0,1,1]             

   Cartesian axes

     site n.     atom                  positions (alat units)
         1           H   tau(   1) = (   0.0000000   0.0000000   0.0000000  )
         2           H   tau(   2) = (   0.0453534   0.0000000   0.0000000  )

   Crystallographic axes

     site n.     atom                  positions (cryst. coord.)
         1           H   tau(   1) = (  0.0000000  0.0000000  0.0000000  )
         2           H   tau(   2) = (  0.0453534  0.0000000  0.0000000  )

     number of k points=     1
                       cart. coord. in units 2pi/alat
        k(    1) = (  -0.5000000  -0.5000000  -0.5000000), wk =   2.0000000

                       cryst. coord.
        k(    1) = (  -0.5000000  -0.5000000  -0.5000000), wk =   2.0000000

     Dense  grid:   211657 G-vectors     FFT dimensions: (  75,  75,  75)

     Dynamical RAM for                 wfc:       0.81 MB

     Dynamical RAM for     wfc (w. buffer):       0.81 MB

     Dynamical RAM for           str. fact:       3.23 MB

     Dynamical RAM for           local pot:       0.00 MB

     Dynamical RAM for          nlocal pot:       0.81 MB

     Dynamical RAM for                qrad:       0.01 MB

     Dynamical RAM for          rho,v,vnew:      19.34 MB

     Dynamical RAM for               rhoin:       6.45 MB

     Dynamical RAM for            rho*nmix:      51.67 MB

     Dynamical RAM for           G-vectors:      13.73 MB

     Dynamical RAM for          h,s,v(r/c):       0.00 MB

     Dynamical RAM for          <psi|beta>:       0.00 MB

     Dynamical RAM for                 psi:       1.62 MB

     Dynamical RAM for                hpsi:       1.62 MB

     Dynamical RAM for                spsi:       1.62 MB

     Dynamical RAM for      wfcinit/wfcrot:       1.62 MB

     Dynamical RAM for           addusdens:      19.38 MB

     Dynamical RAM for          addusforce:      27.45 MB

     Estimated static dynamical RAM per process >      66.92 MB

     Estimated max dynamical RAM per process >     146.05 MB

     Initial potential from superposition of free atoms

     starting charge       2.0000, renormalised to       2.0000

     negative rho (up, down):  9.694E-02 0.000E+00
     Starting wfcs are    2 randomized atomic wfcs

     total cpu time spent up to now is        0.4 secs

     Self-consistent Calculation

     iteration #  1     ecut=    15.00 Ry     beta= 0.70
     Davidson diagonalization with overlap

---- Real-time Memory Report at c_bands before calling an iterative solver
           125 MiB given to the printing process from OS
             0 MiB allocation reported by mallinfo(arena+hblkhd)
           475 MiB available memory on the node where the printing process lives
------------------
     ethr =  1.00E-02,  avg # of iterations =  5.0

     negative rho (up, down):  1.655E-01 0.000E+00

     total cpu time spent up to now is        0.8 secs

     total energy              =      -2.29598577 Ry
     estimated scf accuracy    <       0.13203552 Ry

     iteration #  2     ecut=    15.00 Ry     beta= 0.70
     Davidson diagonalization with overlap

---- Real-time Memory Report at c_bands before calling an iterative solver
           153 MiB given to the printing process from OS
             0 MiB allocation reported by mallinfo(arena+hblkhd)
           417 MiB available memory on the node where the printing process lives
------------------
     ethr =  6.60E-03,  avg # of iterations =  1.0

     negative rho (up, down):  1.809E-01 0.000E+00

     total cpu time spent up to now is        1.2 secs

     total energy              =      -2.29647565 Ry
     estimated scf accuracy    <       0.00157629 Ry

     iteration #  3     ecut=    15.00 Ry     beta= 0.70
     Davidson diagonalization with overlap

---- Real-time Memory Report at c_bands before calling an iterative solver
           160 MiB given to the printing process from OS
             0 MiB allocation reported by mallinfo(arena+hblkhd)
           410 MiB available memory on the node where the printing process lives
------------------
     ethr =  7.88E-05,  avg # of iterations =  9.0

     negative rho (up, down):  1.813E-01 0.000E+00

     total cpu time spent up to now is        1.6 secs

     total energy              =      -2.29671120 Ry
     estimated scf accuracy    <       0.00002113 Ry

     iteration #  4     ecut=    15.00 Ry     beta= 0.70
     Davidson diagonalization with overlap

---- Real-time Memory Report at c_bands before calling an iterative solver
           166 MiB given to the printing process from OS
             0 MiB allocation reported by mallinfo(arena+hblkhd)
           404 MiB available memory on the node where the printing process lives
------------------
     ethr =  1.06E-06,  avg # of iterations =  5.0

     negative rho (up, down):  1.819E-01 0.000E+00

     total cpu time spent up to now is        2.1 secs

     total energy              =      -2.29639010 Ry
     estimated scf accuracy    <       0.00000044 Ry

     iteration #  5     ecut=    15.00 Ry     beta= 0.70
     Davidson diagonalization with overlap

---- Real-time Memory Report at c_bands before calling an iterative solver
           173 MiB given to the printing process from OS
             0 MiB allocation reported by mallinfo(arena+hblkhd)
           397 MiB available memory on the node where the printing process lives
------------------
     ethr =  2.22E-08,  avg # of iterations =  3.0

     negative rho (up, down):  1.819E-01 0.000E+00

     total cpu time spent up to now is        2.4 secs

     total energy              =      -2.29640798 Ry
     estimated scf accuracy    <       0.00000006 Ry

     iteration #  6     ecut=    15.00 Ry     beta= 0.70
     Davidson diagonalization with overlap

---- Real-time Memory Report at c_bands before calling an iterative solver
           179 MiB given to the printing process from OS
             0 MiB allocation reported by mallinfo(arena+hblkhd)
           391 MiB available memory on the node where the printing process lives
------------------
     ethr =  2.90E-09,  avg # of iterations =  3.0

     negative rho (up, down):  1.819E-01 0.000E+00

     total cpu time spent up to now is        2.8 secs

     total energy              =      -2.29636081 Ry
     estimated scf accuracy    <       0.00000007 Ry

     iteration #  7     ecut=    15.00 Ry     beta= 0.70
     Davidson diagonalization with overlap

---- Real-time Memory Report at c_bands before calling an iterative solver
           186 MiB given to the printing process from OS
             0 MiB allocation reported by mallinfo(arena+hblkhd)
           384 MiB available memory on the node where the printing process lives
------------------
     ethr =  2.90E-09,  avg # of iterations =  4.0

     negative rho (up, down):  1.819E-01 0.000E+00

     total cpu time spent up to now is        3.3 secs

     total energy              =      -2.29639761 Ry
     estimated scf accuracy    <       0.00000027 Ry

     iteration #  8     ecut=    15.00 Ry     beta= 0.70
     Davidson diagonalization with overlap

---- Real-time Memory Report at c_bands before calling an iterative solver
           192 MiB given to the printing process from OS
             0 MiB allocation reported by mallinfo(arena+hblkhd)
           378 MiB available memory on the node where the printing process lives
------------------
     ethr =  2.90E-09,  avg # of iterations =  4.0

     negative rho (up, down):  1.819E-01 0.000E+00

     total cpu time spent up to now is        3.7 secs

     total energy              =      -2.29640546 Ry
     estimated scf accuracy    <       0.00000019 Ry

     iteration #  9     ecut=    15.00 Ry     beta= 0.70
     Davidson diagonalization with overlap

---- Real-time Memory Report at c_bands before calling an iterative solver
           199 MiB given to the printing process from OS
             0 MiB allocation reported by mallinfo(arena+hblkhd)
           372 MiB available memory on the node where the printing process lives
------------------
     ethr =  2.90E-09,  avg # of iterations =  1.0

     negative rho (up, down):  1.819E-01 0.000E+00

     total cpu time spent up to now is        4.1 secs

     total energy              =      -2.29640276 Ry
     estimated scf accuracy    <       0.00000019 Ry

     iteration # 10     ecut=    15.00 Ry     beta= 0.70
     Davidson diagonalization with overlap

---- Real-time Memory Report at c_bands before calling an iterative solver
           205 MiB given to the printing process from OS
             0 MiB allocation reported by mallinfo(arena+hblkhd)
           365 MiB available memory on the node where the printing process lives
------------------
     ethr =  2.90E-09,  avg # of iterations =  1.0

     negative rho (up, down):  1.819E-01 0.000E+00

     total cpu time spent up to now is        4.5 secs

     total energy              =      -2.29640450 Ry
     estimated scf accuracy    <       0.00000017 Ry

     iteration # 11     ecut=    15.00 Ry     beta= 0.70
     Davidson diagonalization with overlap

---- Real-time Memory Report at c_bands before calling an iterative solver
           205 MiB given to the printing process from OS
             0 MiB allocation reported by mallinfo(arena+hblkhd)
           365 MiB available memory on the node where the printing process lives
------------------
     ethr =  2.90E-09,  avg # of iterations =  3.0

     negative rho (up, down):  1.819E-01 0.000E+00

     total cpu time spent up to now is        4.8 secs

     total energy              =      -2.29639658 Ry
     estimated scf accuracy    <       0.00000018 Ry

     iteration # 12     ecut=    15.00 Ry     beta= 0.70
     Davidson diagonalization with overlap

---- Real-time Memory Report at c_bands before calling an iterative solver
           205 MiB given to the printing process from OS
             0 MiB allocation reported by mallinfo(arena+hblkhd)
           365 MiB available memory on the node where the printing process lives
------------------
     ethr =  2.90E-09,  avg # of iterations =  2.0

     negative rho (up, down):  1.820E-01 0.000E+00

     total cpu time spent up to now is        5.2 secs

     total energy              =      -2.29633432 Ry
     estimated scf accuracy    <       0.00000011 Ry

     iteration # 13     ecut=    15.00 Ry     beta= 0.70
     Davidson diagonalization with overlap

---- Real-time Memory Report at c_bands before calling an iterative solver
           205 MiB given to the printing process from OS
             0 MiB allocation reported by mallinfo(arena+hblkhd)
           365 MiB available memory on the node where the printing process lives
------------------
     ethr =  2.90E-09,  avg # of iterations =  4.0

     negative rho (up, down):  1.819E-01 0.000E+00

     total cpu time spent up to now is        5.7 secs

     total energy              =      -2.29635752 Ry
     estimated scf accuracy    <       0.00000013 Ry

     iteration # 14     ecut=    15.00 Ry     beta= 0.70
     Davidson diagonalization with overlap

---- Real-time Memory Report at c_bands before calling an iterative solver
           205 MiB given to the printing process from OS
             0 MiB allocation reported by mallinfo(arena+hblkhd)
           365 MiB available memory on the node where the printing process lives
------------------
     ethr =  2.90E-09,  avg # of iterations =  3.0

     negative rho (up, down):  1.819E-01 0.000E+00

     total cpu time spent up to now is        6.1 secs

     total energy              =      -2.29635790 Ry
     estimated scf accuracy    <       0.00000002 Ry

     iteration # 15     ecut=    15.00 Ry     beta= 0.70
     Davidson diagonalization with overlap

---- Real-time Memory Report at c_bands before calling an iterative solver
           205 MiB given to the printing process from OS
             0 MiB allocation reported by mallinfo(arena+hblkhd)
           365 MiB available memory on the node where the printing process lives
------------------
     ethr =  1.11E-09,  avg # of iterations =  3.0

     negative rho (up, down):  1.819E-01 0.000E+00

     total cpu time spent up to now is        6.5 secs

     total energy              =      -2.29635812 Ry
     estimated scf accuracy    <       0.00000003 Ry

     iteration # 16     ecut=    15.00 Ry     beta= 0.70
     Davidson diagonalization with overlap

---- Real-time Memory Report at c_bands before calling an iterative solver
           205 MiB given to the printing process from OS
             0 MiB allocation reported by mallinfo(arena+hblkhd)
           365 MiB available memory on the node where the printing process lives
------------------
     ethr =  1.11E-09,  avg # of iterations =  2.0

     negative rho (up, down):  1.819E-01 0.000E+00

     total cpu time spent up to now is        6.8 secs

     total energy              =      -2.29634388 Ry
     estimated scf accuracy    <       0.00000003 Ry

     iteration # 17     ecut=    15.00 Ry     beta= 0.70
     Davidson diagonalization with overlap

---- Real-time Memory Report at c_bands before calling an iterative solver
           205 MiB given to the printing process from OS
             0 MiB allocation reported by mallinfo(arena+hblkhd)
           365 MiB available memory on the node where the printing process lives
------------------
     ethr =  1.11E-09,  avg # of iterations =  3.0

     negative rho (up, down):  1.819E-01 0.000E+00

     total cpu time spent up to now is        7.2 secs

     total energy              =      -2.29634606 Ry
     estimated scf accuracy    <       0.00000008 Ry

     iteration # 18     ecut=    15.00 Ry     beta= 0.70
     Davidson diagonalization with overlap

---- Real-time Memory Report at c_bands before calling an iterative solver
           205 MiB given to the printing process from OS
             0 MiB allocation reported by mallinfo(arena+hblkhd)
           365 MiB available memory on the node where the printing process lives
------------------
     ethr =  1.11E-09,  avg # of iterations =  2.0

     negative rho (up, down):  1.820E-01 0.000E+00

     total cpu time spent up to now is        7.6 secs

     total energy              =      -2.29632902 Ry
     estimated scf accuracy    <       0.00000007 Ry

     iteration # 19     ecut=    15.00 Ry     beta= 0.70
     Davidson diagonalization with overlap

---- Real-time Memory Report at c_bands before calling an iterative solver
           205 MiB given to the printing process from OS
             0 MiB allocation reported by mallinfo(arena+hblkhd)
           365 MiB available memory on the node where the printing process lives
------------------
     ethr =  1.11E-09,  avg # of iterations =  3.0

     negative rho (up, down):  1.819E-01 0.000E+00

     total cpu time spent up to now is        8.0 secs

     total energy              =      -2.29633817 Ry
     estimated scf accuracy    <       0.00000013 Ry

     iteration # 20     ecut=    15.00 Ry     beta= 0.70
     Davidson diagonalization with overlap

---- Real-time Memory Report at c_bands before calling an iterative solver
           205 MiB given to the printing process from OS
             0 MiB allocation reported by mallinfo(arena+hblkhd)
           365 MiB available memory on the node where the printing process lives
------------------
     ethr =  1.11E-09,  avg # of iterations =  2.0

     negative rho (up, down):  1.819E-01 0.000E+00

     total cpu time spent up to now is        8.4 secs

     total energy              =      -2.29634994 Ry
     estimated scf accuracy    <       0.00000007 Ry

     iteration # 21     ecut=    15.00 Ry     beta= 0.70
     Davidson diagonalization with overlap

---- Real-time Memory Report at c_bands before calling an iterative solver
           205 MiB given to the printing process from OS
             0 MiB allocation reported by mallinfo(arena+hblkhd)
           365 MiB available memory on the node where the printing process lives
------------------
     ethr =  1.11E-09,  avg # of iterations =  3.0

     negative rho (up, down):  1.819E-01 0.000E+00

     total cpu time spent up to now is        8.8 secs

     total energy              =      -2.29639368 Ry
     estimated scf accuracy    <       0.00000009 Ry

     iteration # 22     ecut=    15.00 Ry     beta= 0.70
     Davidson diagonalization with overlap

---- Real-time Memory Report at c_bands before calling an iterative solver
           205 MiB given to the printing process from OS
             0 MiB allocation reported by mallinfo(arena+hblkhd)
           365 MiB available memory on the node where the printing process lives
------------------
     ethr =  1.11E-09,  avg # of iterations =  4.0

     negative rho (up, down):  1.819E-01 0.000E+00

     total cpu time spent up to now is        9.2 secs

     total energy              =      -2.29636330 Ry
     estimated scf accuracy    <       0.00000006 Ry

     iteration # 23     ecut=    15.00 Ry     beta= 0.70
     Davidson diagonalization with overlap

---- Real-time Memory Report at c_bands before calling an iterative solver
           205 MiB given to the printing process from OS
             0 MiB allocation reported by mallinfo(arena+hblkhd)
           365 MiB available memory on the node where the printing process lives
------------------
     ethr =  1.11E-09,  avg # of iterations =  4.0

     negative rho (up, down):  1.819E-01 0.000E+00

     total cpu time spent up to now is        9.6 secs

     End of self-consistent calculation

          k =-0.5000-0.5000-0.5000 ( 26344 PWs)   bands (ev):

   -10.8148  -1.4554

     occupation numbers 
     1.0000   0.0000

     highest occupied, lowest unoccupied level (ev):   -10.8148   -1.4554

!    total energy              =      -2.29639334 Ry
     estimated scf accuracy    <          8.9E-09 Ry

     The total energy is the sum of the following terms:
     one-electron contribution =      -4.27904785 Ry
     hartree contribution      =       2.29884990 Ry
     xc contribution           =      -1.40811382 Ry
     ewald contribution        =       1.09191843 Ry

     convergence has been achieved in  23 iterations

     Forces acting on atoms (cartesian axes, Ry/au):

     atom    1 type  1   force =     0.01151526    0.00000000    0.00000000
     atom    2 type  1   force =    -0.01151526    0.00000000    0.00000000
     The non-local contrib.  to forces
     atom    1 type  1   force =     0.15498173    0.00000000    0.00000000
     atom    2 type  1   force =    -0.15724396    0.00000000    0.00000000
     The ionic contribution  to forces
     atom    1 type  1   force =    -1.07993220   -0.00000000   -0.00000000
     atom    2 type  1   force =     1.07993220    0.00000000   -0.00000000
     The local contribution  to forces
     atom    1 type  1   force =     0.93529956    0.00000000    0.00000000
     atom    2 type  1   force =    -0.93490600    0.00000000    0.00000000
     The core correction contribution to forces
     atom    1 type  1   force =     0.00000000    0.00000000    0.00000000
     atom    2 type  1   force =     0.00000000    0.00000000    0.00000000
     The Hubbard contrib.    to forces
     atom    1 type  1   force =     0.00000000    0.00000000    0.00000000
     atom    2 type  1   force =     0.00000000    0.00000000    0.00000000
     The SCF correction term to forces
     atom    1 type  1   force =     0.00030239   -0.00000000   -0.00000000
     atom    2 type  1   force =    -0.00016126   -0.00000000   -0.00000000

     Total force =     0.016285     Total SCF correction =     0.000343

     BFGS Geometry Optimization
     Energy error            =      0.0E+00 Ry
     Gradient error          =      1.2E-02 Ry/Bohr

     number of scf cycles    =   1
     number of bfgs steps    =   0

     energy             new  =      -2.2963933419 Ry

     new trust radius        =       0.0115152556 bohr
     new conv_thr            =       0.0000000100 Ry


ATOMIC_POSITIONS (angstrom)
H             0.0060936108        0.0000000000        0.0000000000
H             0.7139063892        0.0000000000        0.0000000000



     Writing config-only to output data dir ./.save/
     NEW-OLD atomic charge density approx. for the potential

     negative rho (up, down):  1.823E-01 0.000E+00

     total cpu time spent up to now is       10.0 secs

     Self-consistent Calculation

     iteration #  1     ecut=    15.00 Ry     beta= 0.70
     Davidson diagonalization with overlap

---- Real-time Memory Report at c_bands before calling an iterative solver
           208 MiB given to the printing process from OS
             0 MiB allocation reported by mallinfo(arena+hblkhd)
           469 MiB available memory on the node where the printing process lives
------------------
     ethr =  1.00E-06,  avg # of iterations =  3.0

     negative rho (up, down):  1.848E-01 0.000E+00

     total cpu time spent up to now is       10.4 secs

     total energy              =      -2.29469298 Ry
     estimated scf accuracy    <       0.00005300 Ry

     iteration #  2     ecut=    15.00 Ry     beta= 0.70
     Davidson diagonalization with overlap

---- Real-time Memory Report at c_bands before calling an iterative solver
           208 MiB given to the printing process from OS
             0 MiB allocation reported by mallinfo(arena+hblkhd)
           412 MiB available memory on the node where the printing process lives
------------------
     ethr =  2.65E-06,  avg # of iterations =  2.0

     negative rho (up, down):  1.853E-01 0.000E+00

     total cpu time spent up to now is       10.8 secs

     total energy              =      -2.29446598 Ry
     estimated scf accuracy    <       0.00000030 Ry

     iteration #  3     ecut=    15.00 Ry     beta= 0.70
     Davidson diagonalization with overlap

---- Real-time Memory Report at c_bands before calling an iterative solver
           208 MiB given to the printing process from OS
             0 MiB allocation reported by mallinfo(arena+hblkhd)
           405 MiB available memory on the node where the printing process lives
------------------
     ethr =  1.48E-08,  avg # of iterations =  3.0

     negative rho (up, down):  1.855E-01 0.000E+00

     total cpu time spent up to now is       11.1 secs

     total energy              =      -2.29432945 Ry
     estimated scf accuracy    <       0.00000018 Ry

     iteration #  4     ecut=    15.00 Ry     beta= 0.70
     Davidson diagonalization with overlap

---- Real-time Memory Report at c_bands before calling an iterative solver
           208 MiB given to the printing process from OS
             0 MiB allocation reported by mallinfo(arena+hblkhd)
           399 MiB available memory on the node where the printing process lives
------------------
     ethr =  9.09E-09,  avg # of iterations =  3.0

     negative rho (up, down):  1.855E-01 0.000E+00

     total cpu time spent up to now is       11.5 secs

     total energy              =      -2.29433871 Ry
     estimated scf accuracy    <       0.00000009 Ry

     iteration #  5     ecut=    15.00 Ry     beta= 0.70
     Davidson diagonalization with overlap

---- Real-time Memory Report at c_bands before calling an iterative solver
           208 MiB given to the printing process from OS
             0 MiB allocation reported by mallinfo(arena+hblkhd)
           392 MiB available memory on the node where the printing process lives
------------------
     ethr =  4.67E-09,  avg # of iterations =  3.0

     negative rho (up, down):  1.855E-01 0.000E+00

     total cpu time spent up to now is       11.9 secs

     total energy              =      -2.29434714 Ry
     estimated scf accuracy    <       0.00000029 Ry

     iteration #  6     ecut=    15.00 Ry     beta= 0.70
     Davidson diagonalization with overlap

---- Real-time Memory Report at c_bands before calling an iterative solver
           208 MiB given to the printing process from OS
             0 MiB allocation reported by mallinfo(arena+hblkhd)
           386 MiB available memory on the node where the printing process lives
------------------
     ethr =  4.67E-09,  avg # of iterations =  4.0

     negative rho (up, down):  1.855E-01 0.000E+00

     total cpu time spent up to now is       12.3 secs

     total energy              =      -2.29438825 Ry
     estimated scf accuracy    <       0.00000005 Ry

     iteration #  7     ecut=    15.00 Ry     beta= 0.70
     Davidson diagonalization with overlap

---- Real-time Memory Report at c_bands before calling an iterative solver
           208 MiB given to the printing process from OS
             0 MiB allocation reported by mallinfo(arena+hblkhd)
           379 MiB available memory on the node where the printing process lives
------------------
     ethr =  2.45E-09,  avg # of iterations =  4.0

     negative rho (up, down):  1.855E-01 0.000E+00

     total cpu time spent up to now is       12.7 secs

     total energy              =      -2.29438704 Ry
     estimated scf accuracy    <       0.00000005 Ry

     iteration #  8     ecut=    15.00 Ry     beta= 0.70
     Davidson diagonalization with overlap

---- Real-time Memory Report at c_bands before calling an iterative solver
           208 MiB given to the printing process from OS
             0 MiB allocation reported by mallinfo(arena+hblkhd)
           373 MiB available memory on the node where the printing process lives
------------------
     ethr =  2.40E-09,  avg # of iterations =  3.0

     negative rho (up, down):  1.855E-01 0.000E+00

     total cpu time spent up to now is       13.1 secs

     total energy              =      -2.29435515 Ry
     estimated scf accuracy    <       0.00000010 Ry

     iteration #  9     ecut=    15.00 Ry     beta= 0.70
     Davidson diagonalization with overlap

---- Real-time Memory Report at c_bands before calling an iterative solver
           208 MiB given to the printing process from OS
             0 MiB allocation reported by mallinfo(arena+hblkhd)
           366 MiB available memory on the node where the printing process lives
------------------
     ethr =  2.40E-09,  avg # of iterations =  4.0

     negative rho (up, down):  1.855E-01 0.000E+00

     total cpu time spent up to now is       13.5 secs

     total energy              =      -2.29436448 Ry
     estimated scf accuracy    <       0.00000014 Ry

     iteration # 10     ecut=    15.00 Ry     beta= 0.70
     Davidson diagonalization with overlap

---- Real-time Memory Report at c_bands before calling an iterative solver
           209 MiB given to the printing process from OS
             0 MiB allocation reported by mallinfo(arena+hblkhd)
           360 MiB available memory on the node where the printing process lives
------------------
     ethr =  2.40E-09,  avg # of iterations =  1.0

     negative rho (up, down):  1.855E-01 0.000E+00

     total cpu time spent up to now is       13.9 secs

     total energy              =      -2.29435635 Ry
     estimated scf accuracy    <       0.00000013 Ry

     iteration # 11     ecut=    15.00 Ry     beta= 0.70
     Davidson diagonalization with overlap

---- Real-time Memory Report at c_bands before calling an iterative solver
           209 MiB given to the printing process from OS
             0 MiB allocation reported by mallinfo(arena+hblkhd)
           360 MiB available memory on the node where the printing process lives
------------------
     ethr =  2.40E-09,  avg # of iterations =  3.0

     negative rho (up, down):  1.855E-01 0.000E+00

     total cpu time spent up to now is       14.3 secs

     total energy              =      -2.29435699 Ry
     estimated scf accuracy    <       0.00000005 Ry

     iteration # 12     ecut=    15.00 Ry     beta= 0.70
     Davidson diagonalization with overlap

---- Real-time Memory Report at c_bands before calling an iterative solver
           209 MiB given to the printing process from OS
             0 MiB allocation reported by mallinfo(arena+hblkhd)
           360 MiB available memory on the node where the printing process lives
------------------
     ethr =  2.40E-09,  avg # of iterations =  2.0

     negative rho (up, down):  1.855E-01 0.000E+00

     total cpu time spent up to now is       14.7 secs

     total energy              =      -2.29435840 Ry
     estimated scf accuracy    <       0.00000005 Ry

     iteration # 13     ecut=    15.00 Ry     beta= 0.70
     Davidson diagonalization with overlap

---- Real-time Memory Report at c_bands before calling an iterative solver
           209 MiB given to the printing process from OS
             0 MiB allocation reported by mallinfo(arena+hblkhd)
           360 MiB available memory on the node where the printing process lives
------------------
     ethr =  2.26E-09,  avg # of iterations =  2.0

     negative rho (up, down):  1.855E-01 0.000E+00

     total cpu time spent up to now is       15.0 secs

     total energy              =      -2.29435966 Ry
     estimated scf accuracy    <       0.00000005 Ry

     iteration # 14     ecut=    15.00 Ry     beta= 0.70
     Davidson diagonalization with overlap

---- Real-time Memory Report at c_bands before calling an iterative solver
           209 MiB given to the printing process from OS
             0 MiB allocation reported by mallinfo(arena+hblkhd)
           360 MiB available memory on the node where the printing process lives
------------------
     ethr =  2.26E-09,  avg # of iterations =  3.0

     negative rho (up, down):  1.855E-01 0.000E+00

     total cpu time spent up to now is       15.4 secs

     total energy              =      -2.29436408 Ry
     estimated scf accuracy    <       0.00000012 Ry

     iteration # 15     ecut=    15.00 Ry     beta= 0.70
     Davidson diagonalization with overlap

---- Real-time Memory Report at c_bands before calling an iterative solver
           209 MiB given to the printing process from OS
             0 MiB allocation reported by mallinfo(arena+hblkhd)
           360 MiB available memory on the node where the printing process lives
------------------
     ethr =  2.26E-09,  avg # of iterations =  2.0

     negative rho (up, down):  1.855E-01 0.000E+00

     total cpu time spent up to now is       15.8 secs

     total energy              =      -2.29436483 Ry
     estimated scf accuracy    <       0.00000013 Ry

     iteration # 16     ecut=    15.00 Ry     beta= 0.70
     Davidson diagonalization with overlap

---- Real-time Memory Report at c_bands before calling an iterative solver
           209 MiB given to the printing process from OS
             0 MiB allocation reported by mallinfo(arena+hblkhd)
           360 MiB available memory on the node where the printing process lives
------------------
     ethr =  2.26E-09,  avg # of iterations =  1.0

     negative rho (up, down):  1.855E-01 0.000E+00

     total cpu time spent up to now is       16.2 secs

     total energy              =      -2.29436885 Ry
     estimated scf accuracy    <       0.00000014 Ry

     iteration # 17     ecut=    15.00 Ry     beta= 0.70
     Davidson diagonalization with overlap

---- Real-time Memory Report at c_bands before calling an iterative solver
           209 MiB given to the printing process from OS
             0 MiB allocation reported by mallinfo(arena+hblkhd)
           360 MiB available memory on the node where the printing process lives
------------------
     ethr =  2.26E-09,  avg # of iterations =  3.0

     negative rho (up, down):  1.856E-01 0.000E+00

     total cpu time spent up to now is       16.6 secs

     total energy              =      -2.29431367 Ry
     estimated scf accuracy    <       0.00000006 Ry

     iteration # 18     ecut=    15.00 Ry     beta= 0.70
     Davidson diagonalization with overlap

---- Real-time Memory Report at c_bands before calling an iterative solver
           209 MiB given to the printing process from OS
             0 MiB allocation reported by mallinfo(arena+hblkhd)
           360 MiB available memory on the node where the printing process lives
------------------
     ethr =  2.26E-09,  avg # of iterations =  3.0

     negative rho (up, down):  1.856E-01 0.000E+00

     total cpu time spent up to now is       17.0 secs

     total energy              =      -2.29431816 Ry
     estimated scf accuracy    <       0.00000002 Ry

     iteration # 19     ecut=    15.00 Ry     beta= 0.70
     Davidson diagonalization with overlap

---- Real-time Memory Report at c_bands before calling an iterative solver
           209 MiB given to the printing process from OS
             0 MiB allocation reported by mallinfo(arena+hblkhd)
           360 MiB available memory on the node where the printing process lives
------------------
     ethr =  1.12E-09,  avg # of iterations =  3.0

     negative rho (up, down):  1.856E-01 0.000E+00

     total cpu time spent up to now is       17.4 secs

     total energy              =      -2.29431984 Ry
     estimated scf accuracy    <       0.00000008 Ry

     iteration # 20     ecut=    15.00 Ry     beta= 0.70
     Davidson diagonalization with overlap

---- Real-time Memory Report at c_bands before calling an iterative solver
           209 MiB given to the printing process from OS
             0 MiB allocation reported by mallinfo(arena+hblkhd)
           360 MiB available memory on the node where the printing process lives
------------------
     ethr =  1.12E-09,  avg # of iterations =  3.0

     negative rho (up, down):  1.855E-01 0.000E+00

     total cpu time spent up to now is       17.8 secs

     total energy              =      -2.29432622 Ry
     estimated scf accuracy    <       0.00000005 Ry

     iteration # 21     ecut=    15.00 Ry     beta= 0.70
     Davidson diagonalization with overlap

---- Real-time Memory Report at c_bands before calling an iterative solver
           209 MiB given to the printing process from OS
             0 MiB allocation reported by mallinfo(arena+hblkhd)
           360 MiB available memory on the node where the printing process lives
------------------
     ethr =  1.12E-09,  avg # of iterations =  3.0

     negative rho (up, down):  1.855E-01 0.000E+00

     total cpu time spent up to now is       18.2 secs

     total energy              =      -2.29433218 Ry
     estimated scf accuracy    <       0.00000008 Ry

     iteration # 22     ecut=    15.00 Ry     beta= 0.70
     Davidson diagonalization with overlap

---- Real-time Memory Report at c_bands before calling an iterative solver
           209 MiB given to the printing process from OS
             0 MiB allocation reported by mallinfo(arena+hblkhd)
           360 MiB available memory on the node where the printing process lives
------------------
     ethr =  1.12E-09,  avg # of iterations =  3.0

     negative rho (up, down):  1.855E-01 0.000E+00

     total cpu time spent up to now is       18.6 secs

     total energy              =      -2.29432467 Ry
     estimated scf accuracy    <       0.00000016 Ry

     iteration # 23     ecut=    15.00 Ry     beta= 0.70
     Davidson diagonalization with overlap

---- Real-time Memory Report at c_bands before calling an iterative solver
           209 MiB given to the printing process from OS
             0 MiB allocation reported by mallinfo(arena+hblkhd)
           360 MiB available memory on the node where the printing process lives
------------------
     ethr =  1.12E-09,  avg # of iterations =  4.0

     negative rho (up, down):  1.855E-01 0.000E+00

     total cpu time spent up to now is       19.0 secs

     total energy              =      -2.29435945 Ry
     estimated scf accuracy    <       0.00000004 Ry

     iteration # 24     ecut=    15.00 Ry     beta= 0.70
     Davidson diagonalization with overlap

---- Real-time Memory Report at c_bands before calling an iterative solver
           209 MiB given to the printing process from OS
             0 MiB allocation reported by mallinfo(arena+hblkhd)
           360 MiB available memory on the node where the printing process lives
------------------
     ethr =  1.12E-09,  avg # of iterations =  4.0

     negative rho (up, down):  1.855E-01 0.000E+00

     total cpu time spent up to now is       19.4 secs

     total energy              =      -2.29436390 Ry
     estimated scf accuracy    <       0.00000012 Ry

     iteration # 25     ecut=    15.00 Ry     beta= 0.70
     Davidson diagonalization with overlap

---- Real-time Memory Report at c_bands before calling an iterative solver
           209 MiB given to the printing process from OS
             0 MiB allocation reported by mallinfo(arena+hblkhd)
           360 MiB available memory on the node where the printing process lives
------------------
     ethr =  1.12E-09,  avg # of iterations =  1.0

     negative rho (up, down):  1.855E-01 0.000E+00

     total cpu time spent up to now is       19.7 secs

     total energy              =      -2.29436424 Ry
     estimated scf accuracy    <       0.00000013 Ry

     iteration # 26     ecut=    15.00 Ry     beta= 0.70
     Davidson diagonalization with overlap

---- Real-time Memory Report at c_bands before calling an iterative solver
           209 MiB given to the printing process from OS
             0 MiB allocation reported by mallinfo(arena+hblkhd)
           360 MiB available memory on the node where the printing process lives
------------------
     ethr =  1.12E-09,  avg # of iterations =  1.0

     negative rho (up, down):  1.855E-01 0.000E+00

     total cpu time spent up to now is       20.1 secs

     total energy              =      -2.29435702 Ry
     estimated scf accuracy    <       0.00000014 Ry

     iteration # 27     ecut=    15.00 Ry     beta= 0.70
     Davidson diagonalization with overlap

---- Real-time Memory Report at c_bands before calling an iterative solver
           209 MiB given to the printing process from OS
             0 MiB allocation reported by mallinfo(arena+hblkhd)
           360 MiB available memory on the node where the printing process lives
------------------
     ethr =  1.12E-09,  avg # of iterations =  3.0

     negative rho (up, down):  1.855E-01 0.000E+00

     total cpu time spent up to now is       20.5 secs

     total energy              =      -2.29435815 Ry
     estimated scf accuracy    <       0.00000005 Ry

     iteration # 28     ecut=    15.00 Ry     beta= 0.70
     Davidson diagonalization with overlap

---- Real-time Memory Report at c_bands before calling an iterative solver
           209 MiB given to the printing process from OS
             0 MiB allocation reported by mallinfo(arena+hblkhd)
           360 MiB available memory on the node where the printing process lives
------------------
     ethr =  1.12E-09,  avg # of iterations =  3.0

     negative rho (up, down):  1.855E-01 0.000E+00

     total cpu time spent up to now is       20.9 secs

     total energy              =      -2.29435021 Ry
     estimated scf accuracy    <       0.00000010 Ry

     iteration # 29     ecut=    15.00 Ry     beta= 0.70
     Davidson diagonalization with overlap

---- Real-time Memory Report at c_bands before calling an iterative solver
           209 MiB given to the printing process from OS
             0 MiB allocation reported by mallinfo(arena+hblkhd)
           360 MiB available memory on the node where the printing process lives
------------------
     ethr =  1.12E-09,  avg # of iterations =  4.0

     negative rho (up, down):  1.855E-01 0.000E+00

     total cpu time spent up to now is       21.3 secs

     total energy              =      -2.29435527 Ry
     estimated scf accuracy    <       0.00000004 Ry

     iteration # 30     ecut=    15.00 Ry     beta= 0.70
     Davidson diagonalization with overlap

---- Real-time Memory Report at c_bands before calling an iterative solver
           209 MiB given to the printing process from OS
             0 MiB allocation reported by mallinfo(arena+hblkhd)
           360 MiB available memory on the node where the printing process lives
------------------
     ethr =  1.12E-09,  avg # of iterations =  3.0

     negative rho (up, down):  1.855E-01 0.000E+00

     total cpu time spent up to now is       21.7 secs

     total energy              =      -2.29435534 Ry
     estimated scf accuracy    <       0.00000004 Ry

     iteration # 31     ecut=    15.00 Ry     beta= 0.70
     Davidson diagonalization with overlap

---- Real-time Memory Report at c_bands before calling an iterative solver
           209 MiB given to the printing process from OS
             0 MiB allocation reported by mallinfo(arena+hblkhd)
           360 MiB available memory on the node where the printing process lives
------------------
     ethr =  1.12E-09,  avg # of iterations =  1.0

     negative rho (up, down):  1.855E-01 0.000E+00

     total cpu time spent up to now is       22.1 secs

     total energy              =      -2.29432706 Ry
     estimated scf accuracy    <       0.00000004 Ry

     iteration # 32     ecut=    15.00 Ry     beta= 0.70
     Davidson diagonalization with overlap

---- Real-time Memory Report at c_bands before calling an iterative solver
           209 MiB given to the printing process from OS
             0 MiB allocation reported by mallinfo(arena+hblkhd)
           360 MiB available memory on the node where the printing process lives
------------------
     ethr =  1.12E-09,  avg # of iterations =  4.0

     negative rho (up, down):  1.855E-01 0.000E+00

     total cpu time spent up to now is       22.5 secs

     total energy              =      -2.29433561 Ry
     estimated scf accuracy    <       0.00000007 Ry

     iteration # 33     ecut=    15.00 Ry     beta= 0.70
     Davidson diagonalization with overlap

---- Real-time Memory Report at c_bands before calling an iterative solver
           209 MiB given to the printing process from OS
             0 MiB allocation reported by mallinfo(arena+hblkhd)
           360 MiB available memory on the node where the printing process lives
------------------
     ethr =  1.12E-09,  avg # of iterations =  3.0

     negative rho (up, down):  1.855E-01 0.000E+00

     total cpu time spent up to now is       22.9 secs

     total energy              =      -2.29434848 Ry
     estimated scf accuracy    <       0.00000013 Ry

     iteration # 34     ecut=    15.00 Ry     beta= 0.70
     Davidson diagonalization with overlap

---- Real-time Memory Report at c_bands before calling an iterative solver
           209 MiB given to the printing process from OS
             0 MiB allocation reported by mallinfo(arena+hblkhd)
           360 MiB available memory on the node where the printing process lives
------------------
     ethr =  1.12E-09,  avg # of iterations =  4.0

     negative rho (up, down):  1.855E-01 0.000E+00

     total cpu time spent up to now is       23.3 secs

     total energy              =      -2.29435124 Ry
     estimated scf accuracy    <       0.00000004 Ry

     iteration # 35     ecut=    15.00 Ry     beta= 0.70
     Davidson diagonalization with overlap

---- Real-time Memory Report at c_bands before calling an iterative solver
           209 MiB given to the printing process from OS
             0 MiB allocation reported by mallinfo(arena+hblkhd)
           360 MiB available memory on the node where the printing process lives
------------------
     ethr =  1.12E-09,  avg # of iterations =  3.0

     negative rho (up, down):  1.855E-01 0.000E+00

     total cpu time spent up to now is       23.7 secs

     total energy              =      -2.29435230 Ry
     estimated scf accuracy    <       0.00000004 Ry

     iteration # 36     ecut=    15.00 Ry     beta= 0.70
     Davidson diagonalization with overlap

---- Real-time Memory Report at c_bands before calling an iterative solver
           209 MiB given to the printing process from OS
             0 MiB allocation reported by mallinfo(arena+hblkhd)
           360 MiB available memory on the node where the printing process lives
------------------
     ethr =  1.12E-09,  avg # of iterations =  2.0

     negative rho (up, down):  1.855E-01 0.000E+00

     total cpu time spent up to now is       24.1 secs

     total energy              =      -2.29435164 Ry
     estimated scf accuracy    <       0.00000004 Ry

     iteration # 37     ecut=    15.00 Ry     beta= 0.70
     Davidson diagonalization with overlap

---- Real-time Memory Report at c_bands before calling an iterative solver
           209 MiB given to the printing process from OS
             0 MiB allocation reported by mallinfo(arena+hblkhd)
           360 MiB available memory on the node where the printing process lives
------------------
     ethr =  1.12E-09,  avg # of iterations =  1.0

     negative rho (up, down):  1.856E-01 0.000E+00

     total cpu time spent up to now is       24.5 secs

     total energy              =      -2.29429560 Ry
     estimated scf accuracy    <       0.00000004 Ry

     iteration # 38     ecut=    15.00 Ry     beta= 0.70
     Davidson diagonalization with overlap

---- Real-time Memory Report at c_bands before calling an iterative solver
           209 MiB given to the printing process from OS
             0 MiB allocation reported by mallinfo(arena+hblkhd)
           360 MiB available memory on the node where the printing process lives
------------------
     ethr =  1.12E-09,  avg # of iterations =  3.0

     negative rho (up, down):  1.856E-01 0.000E+00

     total cpu time spent up to now is       24.9 secs

     total energy              =      -2.29429195 Ry
     estimated scf accuracy    <       0.00000006 Ry

     iteration # 39     ecut=    15.00 Ry     beta= 0.70
     Davidson diagonalization with overlap

---- Real-time Memory Report at c_bands before calling an iterative solver
           209 MiB given to the printing process from OS
             0 MiB allocation reported by mallinfo(arena+hblkhd)
           360 MiB available memory on the node where the printing process lives
------------------
     ethr =  1.12E-09,  avg # of iterations =  2.0

     negative rho (up, down):  1.855E-01 0.000E+00

     total cpu time spent up to now is       25.2 secs

     total energy              =      -2.29432477 Ry
     estimated scf accuracy    <       0.00000008 Ry

     iteration # 40     ecut=    15.00 Ry     beta= 0.70
     Davidson diagonalization with overlap

---- Real-time Memory Report at c_bands before calling an iterative solver
           209 MiB given to the printing process from OS
             0 MiB allocation reported by mallinfo(arena+hblkhd)
           360 MiB available memory on the node where the printing process lives
------------------
     ethr =  1.12E-09,  avg # of iterations =  4.0

     negative rho (up, down):  1.855E-01 0.000E+00

     total cpu time spent up to now is       25.7 secs

     total energy              =      -2.29433579 Ry
     estimated scf accuracy    <       0.00000010 Ry

     iteration # 41     ecut=    15.00 Ry     beta= 0.70
     Davidson diagonalization with overlap

---- Real-time Memory Report at c_bands before calling an iterative solver
           209 MiB given to the printing process from OS
             0 MiB allocation reported by mallinfo(arena+hblkhd)
           360 MiB available memory on the node where the printing process lives
------------------
     ethr =  1.12E-09,  avg # of iterations =  4.0

     negative rho (up, down):  1.855E-01 0.000E+00

     total cpu time spent up to now is       26.1 secs

     total energy              =      -2.29433704 Ry
     estimated scf accuracy    <       0.00000031 Ry

     iteration # 42     ecut=    15.00 Ry     beta= 0.70
     Davidson diagonalization with overlap

---- Real-time Memory Report at c_bands before calling an iterative solver
           209 MiB given to the printing process from OS
             0 MiB allocation reported by mallinfo(arena+hblkhd)
           360 MiB available memory on the node where the printing process lives
------------------
     ethr =  1.12E-09,  avg # of iterations =  2.0

     negative rho (up, down):  1.855E-01 0.000E+00

     total cpu time spent up to now is       26.5 secs

     total energy              =      -2.29434788 Ry
     estimated scf accuracy    <       0.00000030 Ry

     iteration # 43     ecut=    15.00 Ry     beta= 0.70
     Davidson diagonalization with overlap

---- Real-time Memory Report at c_bands before calling an iterative solver
           209 MiB given to the printing process from OS
             0 MiB allocation reported by mallinfo(arena+hblkhd)
           360 MiB available memory on the node where the printing process lives
------------------
     ethr =  1.12E-09,  avg # of iterations =  4.0

     negative rho (up, down):  1.856E-01 0.000E+00

     total cpu time spent up to now is       26.9 secs

     total energy              =      -2.29430737 Ry
     estimated scf accuracy    <       0.00000009 Ry

     iteration # 44     ecut=    15.00 Ry     beta= 0.70
     Davidson diagonalization with overlap

---- Real-time Memory Report at c_bands before calling an iterative solver
           209 MiB given to the printing process from OS
             0 MiB allocation reported by mallinfo(arena+hblkhd)
           360 MiB available memory on the node where the printing process lives
------------------
     ethr =  1.12E-09,  avg # of iterations =  3.0

     negative rho (up, down):  1.857E-01 0.000E+00

     total cpu time spent up to now is       27.3 secs

     total energy              =      -2.29427048 Ry
     estimated scf accuracy    <       0.00000004 Ry

     iteration # 45     ecut=    15.00 Ry     beta= 0.70
     Davidson diagonalization with overlap

---- Real-time Memory Report at c_bands before calling an iterative solver
           209 MiB given to the printing process from OS
             0 MiB allocation reported by mallinfo(arena+hblkhd)
           360 MiB available memory on the node where the printing process lives
------------------
     ethr =  1.12E-09,  avg # of iterations =  3.0

     negative rho (up, down):  1.855E-01 0.000E+00

     total cpu time spent up to now is       27.7 secs

     total energy              =      -2.29436680 Ry
     estimated scf accuracy    <       0.00000022 Ry

     iteration # 46     ecut=    15.00 Ry     beta= 0.70
     Davidson diagonalization with overlap

---- Real-time Memory Report at c_bands before calling an iterative solver
           209 MiB given to the printing process from OS
             0 MiB allocation reported by mallinfo(arena+hblkhd)
           360 MiB available memory on the node where the printing process lives
------------------
     ethr =  1.12E-09,  avg # of iterations =  3.0

     negative rho (up, down):  1.855E-01 0.000E+00

     total cpu time spent up to now is       28.1 secs

     total energy              =      -2.29436201 Ry
     estimated scf accuracy    <       0.00000015 Ry

     iteration # 47     ecut=    15.00 Ry     beta= 0.70
     Davidson diagonalization with overlap

---- Real-time Memory Report at c_bands before calling an iterative solver
           209 MiB given to the printing process from OS
             0 MiB allocation reported by mallinfo(arena+hblkhd)
           360 MiB available memory on the node where the printing process lives
------------------
     ethr =  1.12E-09,  avg # of iterations =  3.0

     negative rho (up, down):  1.855E-01 0.000E+00

     total cpu time spent up to now is       28.5 secs

     total energy              =      -2.29436632 Ry
     estimated scf accuracy    <       0.00000012 Ry

     iteration # 48     ecut=    15.00 Ry     beta= 0.70
     Davidson diagonalization with overlap

---- Real-time Memory Report at c_bands before calling an iterative solver
           209 MiB given to the printing process from OS
             0 MiB allocation reported by mallinfo(arena+hblkhd)
           360 MiB available memory on the node where the printing process lives
------------------
     ethr =  1.12E-09,  avg # of iterations =  3.0

     negative rho (up, down):  1.855E-01 0.000E+00

     total cpu time spent up to now is       28.9 secs

     total energy              =      -2.29436184 Ry
     estimated scf accuracy    <       0.00000015 Ry

     iteration # 49     ecut=    15.00 Ry     beta= 0.70
     Davidson diagonalization with overlap

---- Real-time Memory Report at c_bands before calling an iterative solver
           209 MiB given to the printing process from OS
             0 MiB allocation reported by mallinfo(arena+hblkhd)
           360 MiB available memory on the node where the printing process lives
------------------
     ethr =  1.12E-09,  avg # of iterations =  3.0

     negative rho (up, down):  1.855E-01 0.000E+00

     total cpu time spent up to now is       29.3 secs

     total energy              =      -2.29436407 Ry
     estimated scf accuracy    <       0.00000011 Ry

     iteration # 50     ecut=    15.00 Ry     beta= 0.70
     Davidson diagonalization with overlap

---- Real-time Memory Report at c_bands before calling an iterative solver
           209 MiB given to the printing process from OS
             0 MiB allocation reported by mallinfo(arena+hblkhd)
           360 MiB available memory on the node where the printing process lives
------------------
     ethr =  1.12E-09,  avg # of iterations =  3.0

     negative rho (up, down):  1.855E-01 0.000E+00

     total cpu time spent up to now is       29.7 secs

     total energy              =      -2.29435691 Ry
     estimated scf accuracy    <       0.00000013 Ry

     iteration # 51     ecut=    15.00 Ry     beta= 0.70
     Davidson diagonalization with overlap

---- Real-time Memory Report at c_bands before calling an iterative solver
           209 MiB given to the printing process from OS
             0 MiB allocation reported by mallinfo(arena+hblkhd)
           360 MiB available memory on the node where the printing process lives
------------------
     ethr =  1.12E-09,  avg # of iterations =  4.0

     negative rho (up, down):  1.855E-01 0.000E+00

     total cpu time spent up to now is       30.1 secs

     total energy              =      -2.29436157 Ry
     estimated scf accuracy    <       0.00000005 Ry

     iteration # 52     ecut=    15.00 Ry     beta= 0.70
     Davidson diagonalization with overlap

---- Real-time Memory Report at c_bands before calling an iterative solver
           209 MiB given to the printing process from OS
             0 MiB allocation reported by mallinfo(arena+hblkhd)
           360 MiB available memory on the node where the printing process lives
------------------
     ethr =  1.12E-09,  avg # of iterations =  2.0

     negative rho (up, down):  1.855E-01 0.000E+00

     total cpu time spent up to now is       30.5 secs

     total energy              =      -2.29435796 Ry
     estimated scf accuracy    <       0.00000006 Ry

     iteration # 53     ecut=    15.00 Ry     beta= 0.70
     Davidson diagonalization with overlap

---- Real-time Memory Report at c_bands before calling an iterative solver
           209 MiB given to the printing process from OS
             0 MiB allocation reported by mallinfo(arena+hblkhd)
           360 MiB available memory on the node where the printing process lives
------------------
     ethr =  1.12E-09,  avg # of iterations =  2.0

     negative rho (up, down):  1.856E-01 0.000E+00

     total cpu time spent up to now is       30.9 secs

     total energy              =      -2.29430304 Ry
     estimated scf accuracy    <       0.00000005 Ry

     iteration # 54     ecut=    15.00 Ry     beta= 0.70
     Davidson diagonalization with overlap

---- Real-time Memory Report at c_bands before calling an iterative solver
           209 MiB given to the printing process from OS
             0 MiB allocation reported by mallinfo(arena+hblkhd)
           360 MiB available memory on the node where the printing process lives
------------------
     ethr =  1.12E-09,  avg # of iterations =  3.0

     negative rho (up, down):  1.856E-01 0.000E+00

     total cpu time spent up to now is       31.2 secs

     total energy              =      -2.29431852 Ry
     estimated scf accuracy    <       0.00000003 Ry

     iteration # 55     ecut=    15.00 Ry     beta= 0.70
     Davidson diagonalization with overlap

---- Real-time Memory Report at c_bands before calling an iterative solver
           209 MiB given to the printing process from OS
             0 MiB allocation reported by mallinfo(arena+hblkhd)
           360 MiB available memory on the node where the printing process lives
------------------
     ethr =  1.12E-09,  avg # of iterations =  3.0

     negative rho (up, down):  1.855E-01 0.000E+00

     total cpu time spent up to now is       31.6 secs

     total energy              =      -2.29433005 Ry
     estimated scf accuracy    <       0.00000002 Ry

     iteration # 56     ecut=    15.00 Ry     beta= 0.70
     Davidson diagonalization with overlap

---- Real-time Memory Report at c_bands before calling an iterative solver
           209 MiB given to the printing process from OS
             0 MiB allocation reported by mallinfo(arena+hblkhd)
           360 MiB available memory on the node where the printing process lives
------------------
     ethr =  1.12E-09,  avg # of iterations =  4.0

     negative rho (up, down):  1.855E-01 0.000E+00

     total cpu time spent up to now is       32.1 secs

     total energy              =      -2.29436444 Ry
     estimated scf accuracy    <       0.00000009 Ry

     iteration # 57     ecut=    15.00 Ry     beta= 0.70
     Davidson diagonalization with overlap

---- Real-time Memory Report at c_bands before calling an iterative solver
           209 MiB given to the printing process from OS
             0 MiB allocation reported by mallinfo(arena+hblkhd)
           360 MiB available memory on the node where the printing process lives
------------------
     ethr =  1.12E-09,  avg # of iterations =  4.0

     negative rho (up, down):  1.855E-01 0.000E+00

     total cpu time spent up to now is       32.5 secs

     total energy              =      -2.29435682 Ry
     estimated scf accuracy    <       0.00000016 Ry

     iteration # 58     ecut=    15.00 Ry     beta= 0.70
     Davidson diagonalization with overlap

---- Real-time Memory Report at c_bands before calling an iterative solver
           209 MiB given to the printing process from OS
             0 MiB allocation reported by mallinfo(arena+hblkhd)
           360 MiB available memory on the node where the printing process lives
------------------
     ethr =  1.12E-09,  avg # of iterations =  4.0

     negative rho (up, down):  1.855E-01 0.000E+00

     total cpu time spent up to now is       32.9 secs

     total energy              =      -2.29438610 Ry
     estimated scf accuracy    <       0.00000006 Ry

     iteration # 59     ecut=    15.00 Ry     beta= 0.70
     Davidson diagonalization with overlap

---- Real-time Memory Report at c_bands before calling an iterative solver
           209 MiB given to the printing process from OS
             0 MiB allocation reported by mallinfo(arena+hblkhd)
           360 MiB available memory on the node where the printing process lives
------------------
     ethr =  1.12E-09,  avg # of iterations =  4.0

     negative rho (up, down):  1.854E-01 0.000E+00

     total cpu time spent up to now is       33.3 secs

     total energy              =      -2.29440544 Ry
     estimated scf accuracy    <       0.00000003 Ry

     iteration # 60     ecut=    15.00 Ry     beta= 0.70
     Davidson diagonalization with overlap

---- Real-time Memory Report at c_bands before calling an iterative solver
           209 MiB given to the printing process from OS
             0 MiB allocation reported by mallinfo(arena+hblkhd)
           360 MiB available memory on the node where the printing process lives
------------------
     ethr =  1.12E-09,  avg # of iterations =  4.0

     negative rho (up, down):  1.855E-01 0.000E+00

     total cpu time spent up to now is       33.7 secs

     total energy              =      -2.29438208 Ry
     estimated scf accuracy    <       0.00000008 Ry

     iteration # 61     ecut=    15.00 Ry     beta= 0.70
     Davidson diagonalization with overlap

---- Real-time Memory Report at c_bands before calling an iterative solver
           209 MiB given to the printing process from OS
             0 MiB allocation reported by mallinfo(arena+hblkhd)
           360 MiB available memory on the node where the printing process lives
------------------
     ethr =  1.12E-09,  avg # of iterations =  4.0

     negative rho (up, down):  1.855E-01 0.000E+00

     total cpu time spent up to now is       34.1 secs

     total energy              =      -2.29435292 Ry
     estimated scf accuracy    <       0.00000005 Ry

     iteration # 62     ecut=    15.00 Ry     beta= 0.70
     Davidson diagonalization with overlap

---- Real-time Memory Report at c_bands before calling an iterative solver
           209 MiB given to the printing process from OS
             0 MiB allocation reported by mallinfo(arena+hblkhd)
           360 MiB available memory on the node where the printing process lives
------------------
     ethr =  1.12E-09,  avg # of iterations =  4.0

     negative rho (up, down):  1.855E-01 0.000E+00

     total cpu time spent up to now is       34.5 secs

     total energy              =      -2.29435951 Ry
     estimated scf accuracy    <       0.00000011 Ry

     iteration # 63     ecut=    15.00 Ry     beta= 0.70
     Davidson diagonalization with overlap

---- Real-time Memory Report at c_bands before calling an iterative solver
           209 MiB given to the printing process from OS
             0 MiB allocation reported by mallinfo(arena+hblkhd)
           360 MiB available memory on the node where the printing process lives
------------------
     ethr =  1.12E-09,  avg # of iterations =  1.0

     negative rho (up, down):  1.855E-01 0.000E+00

     total cpu time spent up to now is       34.9 secs

     total energy              =      -2.29435167 Ry
     estimated scf accuracy    <       0.00000010 Ry

     iteration # 64     ecut=    15.00 Ry     beta= 0.70
     Davidson diagonalization with overlap

---- Real-time Memory Report at c_bands before calling an iterative solver
           209 MiB given to the printing process from OS
             0 MiB allocation reported by mallinfo(arena+hblkhd)
           360 MiB available memory on the node where the printing process lives
------------------
     ethr =  1.12E-09,  avg # of iterations =  4.0

     negative rho (up, down):  1.855E-01 0.000E+00

     total cpu time spent up to now is       35.3 secs

     total energy              =      -2.29435938 Ry
     estimated scf accuracy    <       0.00000005 Ry

     iteration # 65     ecut=    15.00 Ry     beta= 0.70
     Davidson diagonalization with overlap

---- Real-time Memory Report at c_bands before calling an iterative solver
           209 MiB given to the printing process from OS
             0 MiB allocation reported by mallinfo(arena+hblkhd)
           360 MiB available memory on the node where the printing process lives
------------------
     ethr =  1.12E-09,  avg # of iterations =  4.0

     negative rho (up, down):  1.855E-01 0.000E+00

     total cpu time spent up to now is       35.7 secs

     total energy              =      -2.29435048 Ry
     estimated scf accuracy    <       0.00000012 Ry

     iteration # 66     ecut=    15.00 Ry     beta= 0.70
     Davidson diagonalization with overlap

---- Real-time Memory Report at c_bands before calling an iterative solver
           209 MiB given to the printing process from OS
             0 MiB allocation reported by mallinfo(arena+hblkhd)
           360 MiB available memory on the node where the printing process lives
------------------
     ethr =  1.12E-09,  avg # of iterations =  4.0

     negative rho (up, down):  1.855E-01 0.000E+00

     total cpu time spent up to now is       36.1 secs

     total energy              =      -2.29435851 Ry
     estimated scf accuracy    <       0.00000004 Ry

     iteration # 67     ecut=    15.00 Ry     beta= 0.70
     Davidson diagonalization with overlap

---- Real-time Memory Report at c_bands before calling an iterative solver
           209 MiB given to the printing process from OS
             0 MiB allocation reported by mallinfo(arena+hblkhd)
           360 MiB available memory on the node where the printing process lives
------------------
     ethr =  1.12E-09,  avg # of iterations =  4.0

     negative rho (up, down):  1.855E-01 0.000E+00

     total cpu time spent up to now is       36.5 secs

     total energy              =      -2.29432777 Ry
     estimated scf accuracy    <       0.00000010 Ry

     iteration # 68     ecut=    15.00 Ry     beta= 0.70
     Davidson diagonalization with overlap

---- Real-time Memory Report at c_bands before calling an iterative solver
           209 MiB given to the printing process from OS
             0 MiB allocation reported by mallinfo(arena+hblkhd)
           360 MiB available memory on the node where the printing process lives
------------------
     ethr =  1.12E-09,  avg # of iterations =  4.0

     negative rho (up, down):  1.855E-01 0.000E+00

     total cpu time spent up to now is       36.9 secs

     total energy              =      -2.29434670 Ry
     estimated scf accuracy    <       0.00000009 Ry

     iteration # 69     ecut=    15.00 Ry     beta= 0.70
     Davidson diagonalization with overlap

---- Real-time Memory Report at c_bands before calling an iterative solver
           209 MiB given to the printing process from OS
             0 MiB allocation reported by mallinfo(arena+hblkhd)
           360 MiB available memory on the node where the printing process lives
------------------
     ethr =  1.12E-09,  avg # of iterations =  4.0

     negative rho (up, down):  1.855E-01 0.000E+00

     total cpu time spent up to now is       37.4 secs

     total energy              =      -2.29435498 Ry
     estimated scf accuracy    <       0.00000004 Ry

     iteration # 70     ecut=    15.00 Ry     beta= 0.70
     Davidson diagonalization with overlap

---- Real-time Memory Report at c_bands before calling an iterative solver
           209 MiB given to the printing process from OS
             0 MiB allocation reported by mallinfo(arena+hblkhd)
           360 MiB available memory on the node where the printing process lives
------------------
     ethr =  1.12E-09,  avg # of iterations =  2.0

     negative rho (up, down):  1.855E-01 0.000E+00

     total cpu time spent up to now is       37.7 secs

     total energy              =      -2.29433179 Ry
     estimated scf accuracy    <       0.00000005 Ry

     iteration # 71     ecut=    15.00 Ry     beta= 0.70
     Davidson diagonalization with overlap

---- Real-time Memory Report at c_bands before calling an iterative solver
           209 MiB given to the printing process from OS
             0 MiB allocation reported by mallinfo(arena+hblkhd)
           360 MiB available memory on the node where the printing process lives
------------------
     ethr =  1.12E-09,  avg # of iterations =  4.0

     negative rho (up, down):  1.855E-01 0.000E+00

     total cpu time spent up to now is       38.1 secs

     total energy              =      -2.29433909 Ry
     estimated scf accuracy    <       0.00000015 Ry

     iteration # 72     ecut=    15.00 Ry     beta= 0.70
     Davidson diagonalization with overlap

---- Real-time Memory Report at c_bands before calling an iterative solver
           209 MiB given to the printing process from OS
             0 MiB allocation reported by mallinfo(arena+hblkhd)
           360 MiB available memory on the node where the printing process lives
------------------
     ethr =  1.12E-09,  avg # of iterations =  3.0

     negative rho (up, down):  1.855E-01 0.000E+00

     total cpu time spent up to now is       38.5 secs

     total energy              =      -2.29434838 Ry
     estimated scf accuracy    <       0.00000024 Ry

     iteration # 73     ecut=    15.00 Ry     beta= 0.70
     Davidson diagonalization with overlap

---- Real-time Memory Report at c_bands before calling an iterative solver
           209 MiB given to the printing process from OS
             0 MiB allocation reported by mallinfo(arena+hblkhd)
           360 MiB available memory on the node where the printing process lives
------------------
     ethr =  1.12E-09,  avg # of iterations =  4.0

     negative rho (up, down):  1.855E-01 0.000E+00

     total cpu time spent up to now is       38.9 secs

     total energy              =      -2.29435853 Ry
     estimated scf accuracy    <       0.00000005 Ry

     iteration # 74     ecut=    15.00 Ry     beta= 0.70
     Davidson diagonalization with overlap

---- Real-time Memory Report at c_bands before calling an iterative solver
           209 MiB given to the printing process from OS
             0 MiB allocation reported by mallinfo(arena+hblkhd)
           360 MiB available memory on the node where the printing process lives
------------------
     ethr =  1.12E-09,  avg # of iterations =  3.0

     negative rho (up, down):  1.855E-01 0.000E+00

     total cpu time spent up to now is       39.3 secs

     total energy              =      -2.29435991 Ry
     estimated scf accuracy    <       0.00000011 Ry

     iteration # 75     ecut=    15.00 Ry     beta= 0.70
     Davidson diagonalization with overlap

---- Real-time Memory Report at c_bands before calling an iterative solver
           209 MiB given to the printing process from OS
             0 MiB allocation reported by mallinfo(arena+hblkhd)
           360 MiB available memory on the node where the printing process lives
------------------
     ethr =  1.12E-09,  avg # of iterations =  1.0

     negative rho (up, down):  1.855E-01 0.000E+00

     total cpu time spent up to now is       39.7 secs

     total energy              =      -2.29435329 Ry
     estimated scf accuracy    <       0.00000010 Ry

     iteration # 76     ecut=    15.00 Ry     beta= 0.70
     Davidson diagonalization with overlap

---- Real-time Memory Report at c_bands before calling an iterative solver
           209 MiB given to the printing process from OS
             0 MiB allocation reported by mallinfo(arena+hblkhd)
           360 MiB available memory on the node where the printing process lives
------------------
     ethr =  1.12E-09,  avg # of iterations =  3.0

     negative rho (up, down):  1.855E-01 0.000E+00

     total cpu time spent up to now is       40.1 secs

     total energy              =      -2.29435663 Ry
     estimated scf accuracy    <       0.00000004 Ry

     iteration # 77     ecut=    15.00 Ry     beta= 0.70
     Davidson diagonalization with overlap

---- Real-time Memory Report at c_bands before calling an iterative solver
           209 MiB given to the printing process from OS
             0 MiB allocation reported by mallinfo(arena+hblkhd)
           360 MiB available memory on the node where the printing process lives
------------------
     ethr =  1.12E-09,  avg # of iterations =  2.0

     negative rho (up, down):  1.855E-01 0.000E+00

[...]
------------------
     ethr =  6.43E-10,  avg # of iterations =  4.0

     negative rho (up, down):  1.855E-01 0.000E+00

     total cpu time spent up to now is      110.4 secs

     total energy              =      -2.29436832 Ry
     estimated scf accuracy    <       0.00000005 Ry

     iteration # 77     ecut=    15.00 Ry     beta= 0.70
     Davidson diagonalization with overlap

---- Real-time Memory Report at c_bands before calling an iterative solver
           212 MiB given to the printing process from OS
             0 MiB allocation reported by mallinfo(arena+hblkhd)
           356 MiB available memory on the node where the printing process lives
------------------
     ethr =  6.43E-10,  avg # of iterations =  4.0

     negative rho (up, down):  1.855E-01 0.000E+00

     total cpu time spent up to now is      110.8 secs

     total energy              =      -2.29436819 Ry
     estimated scf accuracy    <       0.00000018 Ry

     iteration # 78     ecut=    15.00 Ry     beta= 0.70
     Davidson diagonalization with overlap

---- Real-time Memory Report at c_bands before calling an iterative solver
           212 MiB given to the printing process from OS
             0 MiB allocation reported by mallinfo(arena+hblkhd)
           356 MiB available memory on the node where the printing process lives
------------------
     ethr =  6.43E-10,  avg # of iterations =  1.0

     negative rho (up, down):  1.855E-01 0.000E+00

     total cpu time spent up to now is      111.1 secs

     total energy              =      -2.29435335 Ry
     estimated scf accuracy    <       0.00000016 Ry

     iteration # 79     ecut=    15.00 Ry     beta= 0.70
     Davidson diagonalization with overlap

---- Real-time Memory Report at c_bands before calling an iterative solver
           212 MiB given to the printing process from OS
             0 MiB allocation reported by mallinfo(arena+hblkhd)
           356 MiB available memory on the node where the printing process lives
------------------
     ethr =  6.43E-10,  avg # of iterations =  4.0

     negative rho (up, down):  1.855E-01 0.000E+00

     total cpu time spent up to now is      111.5 secs

     total energy              =      -2.29435415 Ry
     estimated scf accuracy    <       0.00000006 Ry

     iteration # 80     ecut=    15.00 Ry     beta= 0.70
     Davidson diagonalization with overlap

---- Real-time Memory Report at c_bands before calling an iterative solver
           212 MiB given to the printing process from OS
             0 MiB allocation reported by mallinfo(arena+hblkhd)
           356 MiB available memory on the node where the printing process lives
------------------
     ethr =  6.43E-10,  avg # of iterations =  3.0

     negative rho (up, down):  1.855E-01 0.000E+00

     total cpu time spent up to now is      111.9 secs

     total energy              =      -2.29435995 Ry
     estimated scf accuracy    <       0.00000006 Ry

     iteration # 81     ecut=    15.00 Ry     beta= 0.70
     Davidson diagonalization with overlap

---- Real-time Memory Report at c_bands before calling an iterative solver
           212 MiB given to the printing process from OS
             0 MiB allocation reported by mallinfo(arena+hblkhd)
           356 MiB available memory on the node where the printing process lives
------------------
     ethr =  6.43E-10,  avg # of iterations =  3.0

     negative rho (up, down):  1.855E-01 0.000E+00

     total cpu time spent up to now is      112.3 secs

     total energy              =      -2.29432032 Ry
     estimated scf accuracy    <       0.00000009 Ry

     iteration # 82     ecut=    15.00 Ry     beta= 0.70
     Davidson diagonalization with overlap

---- Real-time Memory Report at c_bands before calling an iterative solver
           212 MiB given to the printing process from OS
             0 MiB allocation reported by mallinfo(arena+hblkhd)
           356 MiB available memory on the node where the printing process lives
------------------
     ethr =  6.43E-10,  avg # of iterations =  4.0

     negative rho (up, down):  1.855E-01 0.000E+00

     total cpu time spent up to now is      112.7 secs

     total energy              =      -2.29433937 Ry
     estimated scf accuracy    <       0.00000017 Ry

     iteration # 83     ecut=    15.00 Ry     beta= 0.70
     Davidson diagonalization with overlap

---- Real-time Memory Report at c_bands before calling an iterative solver
           212 MiB given to the printing process from OS
             0 MiB allocation reported by mallinfo(arena+hblkhd)
           356 MiB available memory on the node where the printing process lives
------------------
     ethr =  6.43E-10,  avg # of iterations =  4.0

     negative rho (up, down):  1.855E-01 0.000E+00

     total cpu time spent up to now is      113.2 secs

     total energy              =      -2.29432325 Ry
     estimated scf accuracy    <       0.00000004 Ry

     iteration # 84     ecut=    15.00 Ry     beta= 0.70
     Davidson diagonalization with overlap

---- Real-time Memory Report at c_bands before calling an iterative solver
           212 MiB given to the printing process from OS
             0 MiB allocation reported by mallinfo(arena+hblkhd)
           356 MiB available memory on the node where the printing process lives
------------------
     ethr =  6.43E-10,  avg # of iterations =  4.0

     negative rho (up, down):  1.855E-01 0.000E+00

     total cpu time spent up to now is      113.6 secs

     total energy              =      -2.29434171 Ry
     estimated scf accuracy    <       0.00000020 Ry

     iteration # 85     ecut=    15.00 Ry     beta= 0.70
     Davidson diagonalization with overlap

---- Real-time Memory Report at c_bands before calling an iterative solver
           212 MiB given to the printing process from OS
             0 MiB allocation reported by mallinfo(arena+hblkhd)
           356 MiB available memory on the node where the printing process lives
------------------
     ethr =  6.43E-10,  avg # of iterations =  4.0

     negative rho (up, down):  1.855E-01 0.000E+00

     total cpu time spent up to now is      114.0 secs

     total energy              =      -2.29434779 Ry
     estimated scf accuracy    <       0.00000004 Ry

     iteration # 86     ecut=    15.00 Ry     beta= 0.70
     Davidson diagonalization with overlap

---- Real-time Memory Report at c_bands before calling an iterative solver
           212 MiB given to the printing process from OS
             0 MiB allocation reported by mallinfo(arena+hblkhd)
           356 MiB available memory on the node where the printing process lives
------------------
     ethr =  6.43E-10,  avg # of iterations =  2.0

     negative rho (up, down):  1.855E-01 0.000E+00

     total cpu time spent up to now is      114.3 secs

     total energy              =      -2.29434784 Ry
     estimated scf accuracy    <       0.00000004 Ry

     iteration # 87     ecut=    15.00 Ry     beta= 0.70
     Davidson diagonalization with overlap

---- Real-time Memory Report at c_bands before calling an iterative solver
           212 MiB given to the printing process from OS
             0 MiB allocation reported by mallinfo(arena+hblkhd)
           356 MiB available memory on the node where the printing process lives
------------------
     ethr =  6.43E-10,  avg # of iterations =  1.0

     negative rho (up, down):  1.856E-01 0.000E+00

     total cpu time spent up to now is      114.7 secs

     total energy              =      -2.29430324 Ry
     estimated scf accuracy    <       0.00000004 Ry

     iteration # 88     ecut=    15.00 Ry     beta= 0.70
     Davidson diagonalization with overlap

---- Real-time Memory Report at c_bands before calling an iterative solver
           212 MiB given to the printing process from OS
             0 MiB allocation reported by mallinfo(arena+hblkhd)
           356 MiB available memory on the node where the printing process lives
------------------
     ethr =  6.43E-10,  avg # of iterations =  4.0

     negative rho (up, down):  1.856E-01 0.000E+00

     total cpu time spent up to now is      115.1 secs

     total energy              =      -2.29430988 Ry
     estimated scf accuracy    <       0.00000006 Ry

     iteration # 89     ecut=    15.00 Ry     beta= 0.70
     Davidson diagonalization with overlap

---- Real-time Memory Report at c_bands before calling an iterative solver
           212 MiB given to the printing process from OS
             0 MiB allocation reported by mallinfo(arena+hblkhd)
           356 MiB available memory on the node where the printing process lives
------------------
     ethr =  6.43E-10,  avg # of iterations =  2.0

     negative rho (up, down):  1.854E-01 0.000E+00

     total cpu time spent up to now is      115.5 secs

     total energy              =      -2.29440043 Ry
     estimated scf accuracy    <       0.00000005 Ry

     iteration # 90     ecut=    15.00 Ry     beta= 0.70
     Davidson diagonalization with overlap

---- Real-time Memory Report at c_bands before calling an iterative solver
           212 MiB given to the printing process from OS
             0 MiB allocation reported by mallinfo(arena+hblkhd)
           356 MiB available memory on the node where the printing process lives
------------------
     ethr =  6.43E-10,  avg # of iterations =  4.0

     negative rho (up, down):  1.855E-01 0.000E+00

     total cpu time spent up to now is      115.9 secs

     total energy              =      -2.29439254 Ry
     estimated scf accuracy    <       0.00000002 Ry

     iteration # 91     ecut=    15.00 Ry     beta= 0.70
     Davidson diagonalization with overlap

---- Real-time Memory Report at c_bands before calling an iterative solver
           212 MiB given to the printing process from OS
             0 MiB allocation reported by mallinfo(arena+hblkhd)
           356 MiB available memory on the node where the printing process lives
------------------
     ethr =  6.43E-10,  avg # of iterations =  4.0

     negative rho (up, down):  1.855E-01 0.000E+00

     total cpu time spent up to now is      116.3 secs

     total energy              =      -2.29438549 Ry
     estimated scf accuracy    <       0.00000010 Ry

     iteration # 92     ecut=    15.00 Ry     beta= 0.70
     Davidson diagonalization with overlap

---- Real-time Memory Report at c_bands before calling an iterative solver
           212 MiB given to the printing process from OS
             0 MiB allocation reported by mallinfo(arena+hblkhd)
           356 MiB available memory on the node where the printing process lives
------------------
     ethr =  6.43E-10,  avg # of iterations =  4.0

     negative rho (up, down):  1.855E-01 0.000E+00

     total cpu time spent up to now is      116.7 secs

     total energy              =      -2.29434203 Ry
     estimated scf accuracy    <       0.00000011 Ry

     iteration # 93     ecut=    15.00 Ry     beta= 0.70
     Davidson diagonalization with overlap

---- Real-time Memory Report at c_bands before calling an iterative solver
           212 MiB given to the printing process from OS
             0 MiB allocation reported by mallinfo(arena+hblkhd)
           356 MiB available memory on the node where the printing process lives
------------------
     ethr =  6.43E-10,  avg # of iterations =  5.0

     negative rho (up, down):  1.855E-01 0.000E+00

     total cpu time spent up to now is      117.2 secs

     total energy              =      -2.29432113 Ry
     estimated scf accuracy    <       0.00000005 Ry

     iteration # 94     ecut=    15.00 Ry     beta= 0.70
     Davidson diagonalization with overlap

---- Real-time Memory Report at c_bands before calling an iterative solver
           212 MiB given to the printing process from OS
             0 MiB allocation reported by mallinfo(arena+hblkhd)
           356 MiB available memory on the node where the printing process lives
------------------
     ethr =  6.43E-10,  avg # of iterations =  4.0

     negative rho (up, down):  1.855E-01 0.000E+00

     total cpu time spent up to now is      117.6 secs

     total energy              =      -2.29433234 Ry
     estimated scf accuracy    <       0.00000012 Ry

     iteration # 95     ecut=    15.00 Ry     beta= 0.70
     Davidson diagonalization with overlap

---- Real-time Memory Report at c_bands before calling an iterative solver
           212 MiB given to the printing process from OS
             0 MiB allocation reported by mallinfo(arena+hblkhd)
           356 MiB available memory on the node where the printing process lives
------------------
     ethr =  6.43E-10,  avg # of iterations =  4.0

     negative rho (up, down):  1.855E-01 0.000E+00

     total cpu time spent up to now is      118.0 secs

     total energy              =      -2.29432988 Ry
     estimated scf accuracy    <       0.00000028 Ry

     iteration # 96     ecut=    15.00 Ry     beta= 0.70
     Davidson diagonalization with overlap

---- Real-time Memory Report at c_bands before calling an iterative solver
           212 MiB given to the printing process from OS
             0 MiB allocation reported by mallinfo(arena+hblkhd)
           356 MiB available memory on the node where the printing process lives
------------------
     ethr =  6.43E-10,  avg # of iterations =  3.0

     negative rho (up, down):  1.855E-01 0.000E+00

     total cpu time spent up to now is      118.4 secs

     total energy              =      -2.29434189 Ry
     estimated scf accuracy    <       0.00000020 Ry

     iteration # 97     ecut=    15.00 Ry     beta= 0.70
     Davidson diagonalization with overlap

---- Real-time Memory Report at c_bands before calling an iterative solver
           212 MiB given to the printing process from OS
             0 MiB allocation reported by mallinfo(arena+hblkhd)
           356 MiB available memory on the node where the printing process lives
------------------
     ethr =  6.43E-10,  avg # of iterations =  4.0

     negative rho (up, down):  1.855E-01 0.000E+00

     total cpu time spent up to now is      118.8 secs

     total energy              =      -2.29434918 Ry
     estimated scf accuracy    <       0.00000004 Ry

     iteration # 98     ecut=    15.00 Ry     beta= 0.70
     Davidson diagonalization with overlap

---- Real-time Memory Report at c_bands before calling an iterative solver
           212 MiB given to the printing process from OS
             0 MiB allocation reported by mallinfo(arena+hblkhd)
           356 MiB available memory on the node where the printing process lives
------------------
     ethr =  6.43E-10,  avg # of iterations =  1.0

     negative rho (up, down):  1.855E-01 0.000E+00

     total cpu time spent up to now is      119.1 secs

     total energy              =      -2.29434886 Ry
     estimated scf accuracy    <       0.00000004 Ry

     iteration # 99     ecut=    15.00 Ry     beta= 0.70
     Davidson diagonalization with overlap

---- Real-time Memory Report at c_bands before calling an iterative solver
           212 MiB given to the printing process from OS
             0 MiB allocation reported by mallinfo(arena+hblkhd)
           356 MiB available memory on the node where the printing process lives
------------------
     ethr =  6.43E-10,  avg # of iterations =  1.0

     negative rho (up, down):  1.855E-01 0.000E+00

     total cpu time spent up to now is      119.5 secs

     total energy              =      -2.29434676 Ry
     estimated scf accuracy    <       0.00000004 Ry

     iteration #100     ecut=    15.00 Ry     beta= 0.70
     Davidson diagonalization with overlap

---- Real-time Memory Report at c_bands before calling an iterative solver
           212 MiB given to the printing process from OS
             0 MiB allocation reported by mallinfo(arena+hblkhd)
           356 MiB available memory on the node where the printing process lives
------------------
     ethr =  6.43E-10,  avg # of iterations =  2.0

     negative rho (up, down):  1.855E-01 0.000E+00

     total cpu time spent up to now is      119.9 secs

     total energy              =      -2.29431978 Ry
     estimated scf accuracy    <       0.00000004 Ry

     End of self-consistent calculation

     convergence NOT achieved after 100 iterations: stopping

     Writing config to output data dir ./.save/
     Message from routine punch:
     wavefunctions written to file

     init_run     :      0.36s CPU      0.39s WALL (       1 calls)
     electrons    :    116.61s CPU    116.91s WALL (       8 calls)
     update_pot   :      1.68s CPU      1.73s WALL (       7 calls)
     forces       :      0.60s CPU      0.62s WALL (       7 calls)

     Called by init_run:
     wfcinit      :      0.03s CPU      0.03s WALL (       1 calls)
     wfcinit:atom :      0.00s CPU      0.00s WALL (       1 calls)
     wfcinit:wfcr :      0.03s CPU      0.03s WALL (       1 calls)
     potinit      :      0.22s CPU      0.24s WALL (       1 calls)
     hinit0       :      0.02s CPU      0.02s WALL (       1 calls)

     Called by electrons:
     c_bands      :     24.80s CPU     24.85s WALL (     294 calls)
     sum_band     :     13.37s CPU     13.39s WALL (     294 calls)
     v_of_rho     :     60.77s CPU     60.88s WALL (     302 calls)
     v_h          :      3.40s CPU      3.41s WALL (     302 calls)
     v_xc         :     57.37s CPU     57.47s WALL (     302 calls)
     newd         :      4.42s CPU      4.43s WALL (     302 calls)
     mix_rho      :     13.71s CPU     13.82s WALL (     294 calls)

     Called by c_bands:
     init_us_2    :      0.41s CPU      0.41s WALL (     589 calls)
     init_us_2:cp :      0.41s CPU      0.41s WALL (     589 calls)
     cegterg      :     24.52s CPU     24.57s WALL (     294 calls)

     Called by sum_band:
     sum_band:wei :      0.00s CPU      0.00s WALL (     294 calls)
     sum_band:loo :      3.90s CPU      3.90s WALL (     294 calls)
     sum_band:buf :      0.00s CPU      0.00s WALL (     294 calls)
     sum_band:ini :      0.21s CPU      0.21s WALL (     294 calls)
     sum_band:cal :      0.05s CPU      0.05s WALL (     294 calls)
     sum_band:bec :      0.00s CPU      0.00s WALL (     294 calls)
     addusdens    :      1.25s CPU      1.26s WALL (     294 calls)
     addusd:skk   :      0.38s CPU      0.39s WALL (     294 calls)
     addusd:dgemm :      0.26s CPU      0.26s WALL (     294 calls)
     addusd:qvan2 :      0.31s CPU      0.32s WALL (     294 calls)

     Called by *egterg:
     cdiaghg      :      0.03s CPU      0.03s WALL (    1225 calls)
     cegterg:over :      0.33s CPU      0.33s WALL (     938 calls)
     cegterg:upda :      0.25s CPU      0.25s WALL (     938 calls)
     cegterg:last :      0.47s CPU      0.47s WALL (     718 calls)
     h_psi        :     22.93s CPU     22.97s WALL (    1233 calls)
     s_psi        :      0.13s CPU      0.13s WALL (    1233 calls)
     g_psi        :      0.11s CPU      0.11s WALL (     938 calls)

     Called by h_psi:
     h_psi:calbec :      0.18s CPU      0.18s WALL (    1233 calls)
     vloc_psi     :     22.52s CPU     22.56s WALL (    1233 calls)
     add_vuspsi   :      0.15s CPU      0.15s WALL (    1233 calls)

     General routines
     calbec       :      0.23s CPU      0.23s WALL (    1555 calls)
     fft          :     30.01s CPU     30.03s WALL (    3343 calls)
     ffts         :      2.68s CPU      2.69s WALL (     294 calls)
     fftw         :     23.67s CPU     23.71s WALL (    4324 calls)
     davcio       :      0.01s CPU      0.01s WALL (      19 calls)


     PWSCF        :   1m59.54s CPU   1m59.95s WALL


   This run was terminated on:   3: 3: 7  28Feb2022            

=------------------------------------------------------------------------------=
   JOB DONE.
=------------------------------------------------------------------------------=
