
     Program PWSCF v.7.0 starts on 28Feb2022 at 23:58:31 

     This program is part of the open-source Quantum ESPRESSO suite
     for quantum simulation of materials; please cite
         "P. Giannozzi et al., J. Phys.:Condens. Matter 21 395502 (2009);
         "P. Giannozzi et al., J. Phys.:Condens. Matter 29 465901 (2017);
         "P. Giannozzi et al., J. Chem. Phys. 152 154105 (2020);
          URL http://www.quantum-espresso.org", 
     in publications or presentations arising from this work. More details at
     http://www.quantum-espresso.org/quote

     Serial version
     1225 MiB available memory on the printing compute node when the environment starts

     Waiting for input...
     Reading input from standard input

     Current dimensions of program PWSCF are:
     Max number of different atomic species (ntypx) = 10
     Max number of k-points (npk) =  40000
     Max angular momentum in pseudopotentials (lmaxx) =  4

    ============================================================
    |  pseudopotential report for atomic species:  1           |
    |        pseudo potential version   7   3   2              |
    ------------------------------------------------------------
    |  oxygen              PBE                  exchange-corr  |
    |  z =   8.    zv( 1) =   6.    exfact =   5.00000         |
    |  ifpcor =  0           atomic energy = -31.58351 Ry      |
    |  index    orbital      occupation    energy              |
    |    1        200           2.00       -1.76               |
    |    2        210           4.00       -0.66               |
    |  rinner =  0.7000  0.7000  0.7000                        |
    |    new generation scheme:                                |
    |    nbeta =  4     kkbeta =  519     rcloc =    1.0000    |
    |    ibeta    l     epsilon   rcut                         |
    |      1       0      -1.76   1.20                         |
    |      2       0      -0.66   1.20                         |
    |      3       1      -1.76   1.20                         |
    |      4       1      -0.66   1.20                         |
    ============================================================

     G-vector sticks info
     --------------------
     sticks:   dense  smooth     PW     G-vecs:    dense   smooth      PW
     Sum        8121    8121   2185               552629   552629   76693

     Using Slab Decomposition



     bravais-lattice index     =            1
     lattice parameter (alat)  =      32.0000  a.u.
     unit-cell volume          =   32768.0000 (a.u.)^3
     number of atoms/cell      =            2
     number of atomic types    =            1
     number of electrons       =        12.00
     number of Kohn-Sham states=            8
     kinetic-energy cutoff     =      25.0000  Ry
     charge density cutoff     =     100.0000  Ry
     scf convergence threshold =      1.0E-08
     mixing beta               =       0.7000
     number of iterations used =            8  plain     mixing
     Exchange-correlation= PBE
                           (   1   4   3   4   0   0   0)

     celldm(1)=  32.000000  celldm(2)=   0.000000  celldm(3)=   0.000000
     celldm(4)=   0.000000  celldm(5)=   0.000000  celldm(6)=   0.000000

     crystal axes: (cart. coord. in units of alat)
               a(1) = (   1.000000   0.000000   0.000000 )  
               a(2) = (   0.000000   1.000000   0.000000 )  
               a(3) = (   0.000000   0.000000   1.000000 )  

     reciprocal axes: (cart. coord. in units 2 pi/alat)
               b(1) = (  1.000000  0.000000  0.000000 )  
               b(2) = (  0.000000  1.000000  0.000000 )  
               b(3) = (  0.000000  0.000000  1.000000 )  


     PseudoPot. # 1 for ox read from file:
     /root/q-e/pseudo/O_US.van
     MD5 check sum: 7e325307d184e51bd80757047dcf04f9
     Pseudo is Ultrasoft, Zval =  6.0
     Generated by Vanderbilt code, v. 7.3.2
     Using radial grid of  737 points,  4 beta functions with: 
                l(1) =   0
                l(2) =   0
                l(3) =   1
                l(4) =   1
     Q(r) pseudized with  8 coefficients,  rinner =    0.700   0.700   0.700


     atomic species   valence    mass     pseudopotential
        O              6.00    15.99900     ox( 1.00)

      8 Sym. Ops. (no inversion) found


                                    s                        frac. trans.

      isym =  1     identity                                     

 cryst.   s( 1) = (     1          0          0      )
                  (     0          1          0      )
                  (     0          0          1      )

 cart.    s( 1) = (  1.0000000  0.0000000  0.0000000 )
                  (  0.0000000  1.0000000  0.0000000 )
                  (  0.0000000  0.0000000  1.0000000 )


      isym =  2     180 deg rotation - cart. axis [1,0,0]        

 cryst.   s( 2) = (     1          0          0      )
                  (     0         -1          0      )
                  (     0          0         -1      )

 cart.    s( 2) = (  1.0000000  0.0000000  0.0000000 )
                  (  0.0000000 -1.0000000  0.0000000 )
                  (  0.0000000  0.0000000 -1.0000000 )


      isym =  3      90 deg rotation - cart. axis [-1,0,0]       

 cryst.   s( 3) = (     1          0          0      )
                  (     0          0         -1      )
                  (     0          1          0      )

 cart.    s( 3) = (  1.0000000  0.0000000  0.0000000 )
                  (  0.0000000  0.0000000  1.0000000 )
                  (  0.0000000 -1.0000000  0.0000000 )


      isym =  4      90 deg rotation - cart. axis [1,0,0]        

 cryst.   s( 4) = (     1          0          0      )
                  (     0          0          1      )
                  (     0         -1          0      )

 cart.    s( 4) = (  1.0000000  0.0000000  0.0000000 )
                  (  0.0000000  0.0000000 -1.0000000 )
                  (  0.0000000  1.0000000  0.0000000 )


      isym =  5     inv. 180 deg rotation - cart. axis [0,0,1]   

 cryst.   s( 5) = (     1          0          0      )
                  (     0          1          0      )
                  (     0          0         -1      )

 cart.    s( 5) = (  1.0000000  0.0000000  0.0000000 )
                  (  0.0000000  1.0000000  0.0000000 )
                  (  0.0000000  0.0000000 -1.0000000 )


      isym =  6     inv. 180 deg rotation - cart. axis [0,1,0]   

 cryst.   s( 6) = (     1          0          0      )
                  (     0         -1          0      )
                  (     0          0          1      )

 cart.    s( 6) = (  1.0000000  0.0000000  0.0000000 )
                  (  0.0000000 -1.0000000  0.0000000 )
                  (  0.0000000  0.0000000  1.0000000 )


      isym =  7     inv. 180 deg rotation - cart. axis [0,1,1]   

 cryst.   s( 7) = (     1          0          0      )
                  (     0          0         -1      )
                  (     0         -1          0      )

 cart.    s( 7) = (  1.0000000  0.0000000  0.0000000 )
                  (  0.0000000  0.0000000 -1.0000000 )
                  (  0.0000000 -1.0000000  0.0000000 )


      isym =  8     inv. 180 deg rotation - cart. axis [0,1,-1]  

 cryst.   s( 8) = (     1          0          0      )
                  (     0          0          1      )
                  (     0          1          0      )

 cart.    s( 8) = (  1.0000000  0.0000000  0.0000000 )
                  (  0.0000000  0.0000000  1.0000000 )
                  (  0.0000000  1.0000000  0.0000000 )


     point group C_4v (4mm) 
     there are  5 classes
     the character table:

       E     2C4   C2    2s_v  2s_d 
A_1    1.00  1.00  1.00  1.00  1.00
A_2    1.00  1.00  1.00 -1.00 -1.00
B_1    1.00 -1.00  1.00  1.00 -1.00
B_2    1.00 -1.00  1.00 -1.00  1.00
E      2.00  0.00 -2.00  0.00  0.00

     the symmetry operations in each class and the name of the first element:

     E        1
          identity                                               
     2C4      3    4
           90 deg rotation - cart. axis [-1,0,0]                 
     C2       2
          180 deg rotation - cart. axis [1,0,0]                  
     2s_v     5    6
          inv. 180 deg rotation - cart. axis [0,0,1]             
     2s_d     7    8
          inv. 180 deg rotation - cart. axis [0,1,1]             

   Cartesian axes

     site n.     atom                  positions (alat units)
         1           O   tau(   1) = (   0.0000000   0.0000000   0.0000000  )
         2           O   tau(   2) = (   0.0707737   0.0000000   0.0000000  )

   Crystallographic axes

     site n.     atom                  positions (cryst. coord.)
         1           O   tau(   1) = (  0.0000000  0.0000000  0.0000000  )
         2           O   tau(   2) = (  0.0707737  0.0000000  0.0000000  )

     number of k points=     1
                       cart. coord. in units 2pi/alat
        k(    1) = (  -0.5000000  -0.5000000  -0.5000000), wk =   2.0000000

                       cryst. coord.
        k(    1) = (  -0.5000000  -0.5000000  -0.5000000), wk =   2.0000000

     Dense  grid:   552629 G-vectors     FFT dimensions: ( 108, 108, 108)

     Dynamical RAM for                 wfc:       8.44 MB

     Dynamical RAM for     wfc (w. buffer):       8.44 MB

     Dynamical RAM for           str. fact:       8.43 MB

     Dynamical RAM for           local pot:       0.00 MB

     Dynamical RAM for          nlocal pot:      16.89 MB

     Dynamical RAM for                qrad:       0.23 MB

     Dynamical RAM for          rho,v,vnew:      54.13 MB

     Dynamical RAM for               rhoin:      18.04 MB

     Dynamical RAM for            rho*nmix:     134.92 MB

     Dynamical RAM for           G-vectors:      35.84 MB

     Dynamical RAM for          h,s,v(r/c):       0.01 MB

     Dynamical RAM for          <psi|beta>:       0.00 MB

     Dynamical RAM for                 psi:      16.89 MB

     Dynamical RAM for                hpsi:      16.89 MB

     Dynamical RAM for                spsi:      16.89 MB

     Dynamical RAM for      wfcinit/wfcrot:      16.89 MB

     Dynamical RAM for           addusdens:     379.46 MB

     Estimated static dynamical RAM per process >     206.92 MB

     Estimated max dynamical RAM per process >     721.30 MB

     Initial potential from superposition of free atoms

     starting charge      12.0000, renormalised to      12.0000

     negative rho (up, down):  1.620E-01 0.000E+00
     Starting wfcs are    8 randomized atomic wfcs

     total cpu time spent up to now is        1.8 secs

     Self-consistent Calculation

     iteration #  1     ecut=    25.00 Ry     beta= 0.70
     Davidson diagonalization with overlap

---- Real-time Memory Report at c_bands before calling an iterative solver
           551 MiB given to the printing process from OS
             0 MiB allocation reported by mallinfo(arena+hblkhd)
          1002 MiB available memory on the node where the printing process lives
------------------
     ethr =  1.00E-02,  avg # of iterations =  9.0

     Threshold (ethr) on eigenvalues was too large:
     Diagonalizing with lowered threshold

     Davidson diagonalization with overlap

---- Real-time Memory Report at c_bands before calling an iterative solver
           625 MiB given to the printing process from OS
             0 MiB allocation reported by mallinfo(arena+hblkhd)
           953 MiB available memory on the node where the printing process lives
------------------
     ethr =  4.60E-04,  avg # of iterations =  2.0

     negative rho (up, down):  1.530E-01 0.000E+00

     total cpu time spent up to now is        6.6 secs

     total energy              =     -63.73356394 Ry
     estimated scf accuracy    <       0.05395272 Ry

     iteration #  2     ecut=    25.00 Ry     beta= 0.70
     Davidson diagonalization with overlap

---- Real-time Memory Report at c_bands before calling an iterative solver
           743 MiB given to the printing process from OS
             0 MiB allocation reported by mallinfo(arena+hblkhd)
           797 MiB available memory on the node where the printing process lives
------------------
     ethr =  4.50E-04,  avg # of iterations =  2.0

     negative rho (up, down):  1.560E-01 0.000E+00

     total cpu time spent up to now is        9.4 secs

     total energy              =     -63.74330336 Ry
     estimated scf accuracy    <       0.00160730 Ry

     iteration #  3     ecut=    25.00 Ry     beta= 0.70
     Davidson diagonalization with overlap

---- Real-time Memory Report at c_bands before calling an iterative solver
           760 MiB given to the printing process from OS
             0 MiB allocation reported by mallinfo(arena+hblkhd)
           780 MiB available memory on the node where the printing process lives
------------------
     ethr =  1.34E-05,  avg # of iterations =  7.0

     negative rho (up, down):  1.590E-01 0.000E+00

     total cpu time spent up to now is       12.7 secs

     total energy              =     -63.74359414 Ry
     estimated scf accuracy    <       0.00021079 Ry

     iteration #  4     ecut=    25.00 Ry     beta= 0.70
     Davidson diagonalization with overlap

---- Real-time Memory Report at c_bands before calling an iterative solver
           777 MiB given to the printing process from OS
             0 MiB allocation reported by mallinfo(arena+hblkhd)
           763 MiB available memory on the node where the printing process lives
------------------
     ethr =  1.76E-06,  avg # of iterations =  2.0

     negative rho (up, down):  1.602E-01 0.000E+00

     total cpu time spent up to now is       15.5 secs

     total energy              =     -63.74361451 Ry
     estimated scf accuracy    <       0.00002102 Ry

     iteration #  5     ecut=    25.00 Ry     beta= 0.70
     Davidson diagonalization with overlap

---- Real-time Memory Report at c_bands before calling an iterative solver
           793 MiB given to the printing process from OS
             0 MiB allocation reported by mallinfo(arena+hblkhd)
           746 MiB available memory on the node where the printing process lives
------------------
     ethr =  1.75E-07,  avg # of iterations =  2.0

     negative rho (up, down):  1.603E-01 0.000E+00

     total cpu time spent up to now is       18.3 secs

     total energy              =     -63.74361406 Ry
     estimated scf accuracy    <       0.00003771 Ry

     iteration #  6     ecut=    25.00 Ry     beta= 0.70
     Davidson diagonalization with overlap

---- Real-time Memory Report at c_bands before calling an iterative solver
           810 MiB given to the printing process from OS
             0 MiB allocation reported by mallinfo(arena+hblkhd)
           729 MiB available memory on the node where the printing process lives
------------------
     ethr =  1.75E-07,  avg # of iterations =  2.0

     negative rho (up, down):  1.603E-01 0.000E+00

     total cpu time spent up to now is       21.0 secs

     total energy              =     -63.74361899 Ry
     estimated scf accuracy    <       0.00000055 Ry

     iteration #  7     ecut=    25.00 Ry     beta= 0.70
     Davidson diagonalization with overlap

---- Real-time Memory Report at c_bands before calling an iterative solver
           827 MiB given to the printing process from OS
             0 MiB allocation reported by mallinfo(arena+hblkhd)
           712 MiB available memory on the node where the printing process lives
------------------
     ethr =  4.61E-09,  avg # of iterations =  2.0

     negative rho (up, down):  1.603E-01 0.000E+00

     total cpu time spent up to now is       23.9 secs

     total energy              =     -63.74361919 Ry
     estimated scf accuracy    <       0.00000015 Ry

     iteration #  8     ecut=    25.00 Ry     beta= 0.70
     Davidson diagonalization with overlap

---- Real-time Memory Report at c_bands before calling an iterative solver
           844 MiB given to the printing process from OS
             0 MiB allocation reported by mallinfo(arena+hblkhd)
           695 MiB available memory on the node where the printing process lives
------------------
     ethr =  1.27E-09,  avg # of iterations =  1.0

     negative rho (up, down):  1.603E-01 0.000E+00

     total cpu time spent up to now is       26.5 secs

     total energy              =     -63.74361917 Ry
     estimated scf accuracy    <       0.00000003 Ry

     iteration #  9     ecut=    25.00 Ry     beta= 0.70
     Davidson diagonalization with overlap

---- Real-time Memory Report at c_bands before calling an iterative solver
           861 MiB given to the printing process from OS
             0 MiB allocation reported by mallinfo(arena+hblkhd)
           678 MiB available memory on the node where the printing process lives
------------------
     ethr =  2.40E-10,  avg # of iterations =  2.0

     negative rho (up, down):  1.603E-01 0.000E+00

     total cpu time spent up to now is       29.3 secs

     End of self-consistent calculation

          k =-0.5000-0.5000-0.5000 ( 68976 PWs)   bands (ev):

   -32.9059 -19.6788 -13.1491 -12.8764 -12.8764  -5.7540  -5.7540  -0.4993

     occupation numbers 
     1.0000   1.0000   1.0000   1.0000   1.0000   1.0000   0.0000   0.0000

     highest occupied, lowest unoccupied level (ev):    -5.7540   -5.7540

!    total energy              =     -63.74361918 Ry
     estimated scf accuracy    <          4.9E-10 Ry

     The total energy is the sum of the following terms:
     one-electron contribution =    -141.77083655 Ry
     hartree contribution      =      72.54848620 Ry
     xc contribution           =     -13.56869445 Ry
     ewald contribution        =      19.04742562 Ry

     convergence has been achieved in   9 iterations

     Writing all to output data dir ./.save/

     init_run     :      1.76s CPU      1.81s WALL (       1 calls)
     electrons    :     26.31s CPU     27.54s WALL (       1 calls)

     Called by init_run:
     wfcinit      :      0.43s CPU      0.43s WALL (       1 calls)
     wfcinit:atom :      0.01s CPU      0.01s WALL (       1 calls)
     wfcinit:wfcr :      0.38s CPU      0.38s WALL (       1 calls)
     potinit      :      0.74s CPU      0.76s WALL (       1 calls)
     hinit0       :      0.12s CPU      0.12s WALL (       1 calls)

     Called by electrons:
     c_bands      :     11.23s CPU     11.25s WALL (      10 calls)
     sum_band     :      5.61s CPU      6.18s WALL (      10 calls)
     v_of_rho     :      6.76s CPU      6.79s WALL (      10 calls)
     v_h          :      0.38s CPU      0.38s WALL (      10 calls)
     v_xc         :      6.38s CPU      6.42s WALL (      10 calls)
     newd         :      2.71s CPU      3.33s WALL (      10 calls)
     mix_rho      :      0.78s CPU      0.79s WALL (      10 calls)

     Called by c_bands:
     init_us_2    :      0.21s CPU      0.21s WALL (      21 calls)
     init_us_2:cp :      0.21s CPU      0.21s WALL (      21 calls)
     cegterg      :     11.02s CPU     11.04s WALL (      10 calls)

     Called by sum_band:
     sum_band:wei :      0.00s CPU      0.00s WALL (      10 calls)
     sum_band:loo :      1.95s CPU      1.95s WALL (      10 calls)
     sum_band:buf :      0.00s CPU      0.00s WALL (      10 calls)
     sum_band:ini :      0.10s CPU      0.10s WALL (      10 calls)
     sum_band:cal :      0.12s CPU      0.12s WALL (      10 calls)
     sum_band:bec :      0.00s CPU      0.00s WALL (      10 calls)
     addusdens    :      2.79s CPU      3.36s WALL (      10 calls)
     addusd:skk   :      0.03s CPU      0.03s WALL (      10 calls)
     addusd:dgemm :      0.90s CPU      1.39s WALL (      10 calls)
     addusd:qvan2 :      1.15s CPU      1.15s WALL (      10 calls)

     Called by *egterg:
     cdiaghg      :      0.00s CPU      0.00s WALL (      40 calls)
     cegterg:over :      0.38s CPU      0.38s WALL (      31 calls)
     cegterg:upda :      0.21s CPU      0.21s WALL (      31 calls)
     cegterg:last :      0.47s CPU      0.47s WALL (      21 calls)
     h_psi        :      9.82s CPU      9.84s WALL (      42 calls)
     s_psi        :      0.29s CPU      0.29s WALL (      42 calls)
     g_psi        :      0.03s CPU      0.03s WALL (      31 calls)

     Called by h_psi:
     h_psi:calbec :      0.34s CPU      0.35s WALL (      42 calls)
     vloc_psi     :      9.16s CPU      9.17s WALL (      42 calls)
     add_vuspsi   :      0.29s CPU      0.29s WALL (      42 calls)

     General routines
     calbec       :      0.46s CPU      0.47s WALL (      52 calls)
     fft          :      3.25s CPU      3.25s WALL (     110 calls)
     ffts         :      0.30s CPU      0.30s WALL (      10 calls)
     fftw         :      9.77s CPU      9.77s WALL (     522 calls)


     PWSCF        :     28.16s CPU     29.46s WALL


   This run was terminated on:  23:59: 1  28Feb2022            

=------------------------------------------------------------------------------=
   JOB DONE.
=------------------------------------------------------------------------------=
