
     Program PWSCF v.7.0 starts on 28Feb2022 at  4:16: 8 

     This program is part of the open-source Quantum ESPRESSO suite
     for quantum simulation of materials; please cite
         "P. Giannozzi et al., J. Phys.:Condens. Matter 21 395502 (2009);
         "P. Giannozzi et al., J. Phys.:Condens. Matter 29 465901 (2017);
         "P. Giannozzi et al., J. Chem. Phys. 152 154105 (2020);
          URL http://www.quantum-espresso.org", 
     in publications or presentations arising from this work. More details at
     http://www.quantum-espresso.org/quote

     Serial version
     600 MiB available memory on the printing compute node when the environment starts

     Waiting for input...
     Reading input from standard input

     Current dimensions of program PWSCF are:
     Max number of different atomic species (ntypx) = 10
     Max number of k-points (npk) =  40000
     Max angular momentum in pseudopotentials (lmaxx) =  4

     File ./.update deleted, as requested

     File ./.bfgs deleted, as requested

    ============================================================
    |  pseudopotential report for atomic species:  1           |
    |        pseudo potential version   7   3   2              |
    ------------------------------------------------------------
    |  hydrogen            PBE                  exchange-corr  |
    |  z =   1.    zv( 1) =   1.    exfact =   5.00000         |
    |  ifpcor =  0           atomic energy =  -0.91772 Ry      |
    |  index    orbital      occupation    energy              |
    |    1        100           1.00       -0.48               |
    |  rinner =  0.5000                                        |
    |    new generation scheme:                                |
    |    nbeta =  1     kkbeta =  271     rcloc =    0.6000    |
    |    ibeta    l     epsilon   rcut                         |
    |      1       0      -0.48   0.80                         |
    ============================================================

     IMPORTANT: XC functional enforced from input :
     Exchange-correlation= BLYP
                           (   1   3   1   3   0   0   0)
     Any further DFT definition will be discarded
     Please, verify this is what you really want


     G-vector sticks info
     --------------------
     sticks:   dense  smooth     PW     G-vecs:    dense   smooth      PW
     Sum        8585    8585   2289               599161   599161   82519

     Using Slab Decomposition



     bravais-lattice index     =            1
     lattice parameter (alat)  =      30.0000  a.u.
     unit-cell volume          =   27000.0000 (a.u.)^3
     number of atoms/cell      =            2
     number of atomic types    =            1
     number of electrons       =         2.00
     number of Kohn-Sham states=            2
     kinetic-energy cutoff     =      30.0000  Ry
     charge density cutoff     =     120.0000  Ry
     scf convergence threshold =      1.0E-08
     mixing beta               =       0.7000
     number of iterations used =            8  plain     mixing
     energy convergence thresh.=      1.0E-04
     force convergence thresh. =      1.0E-03
     Exchange-correlation= BLYP
                           (   1   3   1   3   0   0   0)
     nstep                     =           50


     celldm(1)=  30.000000  celldm(2)=   0.000000  celldm(3)=   0.000000
     celldm(4)=   0.000000  celldm(5)=   0.000000  celldm(6)=   0.000000

     crystal axes: (cart. coord. in units of alat)
               a(1) = (   1.000000   0.000000   0.000000 )  
               a(2) = (   0.000000   1.000000   0.000000 )  
               a(3) = (   0.000000   0.000000   1.000000 )  

     reciprocal axes: (cart. coord. in units 2 pi/alat)
               b(1) = (  1.000000  0.000000  0.000000 )  
               b(2) = (  0.000000  1.000000  0.000000 )  
               b(3) = (  0.000000  0.000000  1.000000 )  


     PseudoPot. # 1 for hy read from file:
     /root/q-e/pseudo/H_US.van
     MD5 check sum: a9a9bfe98ff56cf4de197d71fc46bb44
     Pseudo is Ultrasoft, Zval =  1.0
     Generated by Vanderbilt code, v. 7.3.2
     Using radial grid of  399 points,  1 beta functions with: 
                l(1) =   0
     Q(r) pseudized with  8 coefficients,  rinner =    0.500

     atomic species   valence    mass     pseudopotential
        H              1.00     1.00784     hy( 1.00)

      8 Sym. Ops. (no inversion) found


                                    s                        frac. trans.

      isym =  1     identity                                     

 cryst.   s( 1) = (     1          0          0      )
                  (     0          1          0      )
                  (     0          0          1      )

 cart.    s( 1) = (  1.0000000  0.0000000  0.0000000 )
                  (  0.0000000  1.0000000  0.0000000 )
                  (  0.0000000  0.0000000  1.0000000 )


      isym =  2     180 deg rotation - cart. axis [1,0,0]        

 cryst.   s( 2) = (     1          0          0      )
                  (     0         -1          0      )
                  (     0          0         -1      )

 cart.    s( 2) = (  1.0000000  0.0000000  0.0000000 )
                  (  0.0000000 -1.0000000  0.0000000 )
                  (  0.0000000  0.0000000 -1.0000000 )


      isym =  3      90 deg rotation - cart. axis [-1,0,0]       

 cryst.   s( 3) = (     1          0          0      )
                  (     0          0         -1      )
                  (     0          1          0      )

 cart.    s( 3) = (  1.0000000  0.0000000  0.0000000 )
                  (  0.0000000  0.0000000  1.0000000 )
                  (  0.0000000 -1.0000000  0.0000000 )


      isym =  4      90 deg rotation - cart. axis [1,0,0]        

 cryst.   s( 4) = (     1          0          0      )
                  (     0          0          1      )
                  (     0         -1          0      )

 cart.    s( 4) = (  1.0000000  0.0000000  0.0000000 )
                  (  0.0000000  0.0000000 -1.0000000 )
                  (  0.0000000  1.0000000  0.0000000 )


      isym =  5     inv. 180 deg rotation - cart. axis [0,0,1]   

 cryst.   s( 5) = (     1          0          0      )
                  (     0          1          0      )
                  (     0          0         -1      )

 cart.    s( 5) = (  1.0000000  0.0000000  0.0000000 )
                  (  0.0000000  1.0000000  0.0000000 )
                  (  0.0000000  0.0000000 -1.0000000 )


      isym =  6     inv. 180 deg rotation - cart. axis [0,1,0]   

 cryst.   s( 6) = (     1          0          0      )
                  (     0         -1          0      )
                  (     0          0          1      )

 cart.    s( 6) = (  1.0000000  0.0000000  0.0000000 )
                  (  0.0000000 -1.0000000  0.0000000 )
                  (  0.0000000  0.0000000  1.0000000 )


      isym =  7     inv. 180 deg rotation - cart. axis [0,1,1]   

 cryst.   s( 7) = (     1          0          0      )
                  (     0          0         -1      )
                  (     0         -1          0      )

 cart.    s( 7) = (  1.0000000  0.0000000  0.0000000 )
                  (  0.0000000  0.0000000 -1.0000000 )
                  (  0.0000000 -1.0000000  0.0000000 )


      isym =  8     inv. 180 deg rotation - cart. axis [0,1,-1]  

 cryst.   s( 8) = (     1          0          0      )
                  (     0          0          1      )
                  (     0          1          0      )

 cart.    s( 8) = (  1.0000000  0.0000000  0.0000000 )
                  (  0.0000000  0.0000000  1.0000000 )
                  (  0.0000000  1.0000000  0.0000000 )


     point group C_4v (4mm) 
     there are  5 classes
     the character table:

       E     2C4   C2    2s_v  2s_d 
A_1    1.00  1.00  1.00  1.00  1.00
A_2    1.00  1.00  1.00 -1.00 -1.00
B_1    1.00 -1.00  1.00  1.00 -1.00
B_2    1.00 -1.00  1.00 -1.00  1.00
E      2.00  0.00 -2.00  0.00  0.00

     the symmetry operations in each class and the name of the first element:

     E        1
          identity                                               
     2C4      3    4
           90 deg rotation - cart. axis [-1,0,0]                 
     C2       2
          180 deg rotation - cart. axis [1,0,0]                  
     2s_v     5    6
          inv. 180 deg rotation - cart. axis [0,0,1]             
     2s_d     7    8
          inv. 180 deg rotation - cart. axis [0,1,1]             

   Cartesian axes

     site n.     atom                  positions (alat units)
         1           H   tau(   1) = (   0.0000000   0.0000000   0.0000000  )
         2           H   tau(   2) = (   0.0491329   0.0000000   0.0000000  )

   Crystallographic axes

     site n.     atom                  positions (cryst. coord.)
         1           H   tau(   1) = (  0.0000000  0.0000000  0.0000000  )
         2           H   tau(   2) = (  0.0491329  0.0000000  0.0000000  )

     number of k points=     1
                       cart. coord. in units 2pi/alat
        k(    1) = (  -0.5000000  -0.5000000  -0.5000000), wk =   2.0000000

                       cryst. coord.
        k(    1) = (  -0.5000000  -0.5000000  -0.5000000), wk =   2.0000000

     Dense  grid:   599161 G-vectors     FFT dimensions: ( 108, 108, 108)

     Dynamical RAM for                 wfc:       2.29 MB

     Dynamical RAM for     wfc (w. buffer):       2.29 MB

     Dynamical RAM for           str. fact:       9.14 MB

     Dynamical RAM for           local pot:       0.00 MB

     Dynamical RAM for          nlocal pot:       2.29 MB

     Dynamical RAM for                qrad:       0.01 MB

     Dynamical RAM for          rho,v,vnew:      56.26 MB

     Dynamical RAM for               rhoin:      18.75 MB

     Dynamical RAM for            rho*nmix:     146.28 MB

     Dynamical RAM for           G-vectors:      38.86 MB

     Dynamical RAM for          h,s,v(r/c):       0.00 MB

     Dynamical RAM for          <psi|beta>:       0.00 MB

     Dynamical RAM for                 psi:       4.57 MB

     Dynamical RAM for                hpsi:       4.57 MB

     Dynamical RAM for                spsi:       4.57 MB

     Dynamical RAM for      wfcinit/wfcrot:       4.57 MB

     Dynamical RAM for           addusdens:      54.85 MB

     Dynamical RAM for          addusforce:      77.71 MB

     Estimated static dynamical RAM per process >     193.93 MB

     Estimated max dynamical RAM per process >     417.92 MB

     Initial potential from superposition of free atoms

     starting charge       2.0000, renormalised to       2.0000

     negative rho (up, down):  1.500E-02 0.000E+00
     Starting wfcs are    2 randomized atomic wfcs

     total cpu time spent up to now is        1.1 secs

     Self-consistent Calculation

     iteration #  1     ecut=    30.00 Ry     beta= 0.70
     Davidson diagonalization with overlap

---- Real-time Memory Report at c_bands before calling an iterative solver
           334 MiB given to the printing process from OS
             0 MiB allocation reported by mallinfo(arena+hblkhd)
           372 MiB available memory on the node where the printing process lives
------------------
     ethr =  1.00E-02,  avg # of iterations =  3.0

     negative rho (up, down):  1.962E-02 0.000E+00

     total cpu time spent up to now is        2.2 secs

     total energy              =      -2.31102865 Ry
     estimated scf accuracy    <       0.10381720 Ry

     iteration #  2     ecut=    30.00 Ry     beta= 0.70
     Davidson diagonalization with overlap

---- Real-time Memory Report at c_bands before calling an iterative solver
           426 MiB given to the printing process from OS
             0 MiB allocation reported by mallinfo(arena+hblkhd)
           187 MiB available memory on the node where the printing process lives
------------------
     ethr =  5.19E-03,  avg # of iterations =  1.0

     negative rho (up, down):  2.054E-02 0.000E+00

     total cpu time spent up to now is        3.2 secs

     total energy              =      -2.31800473 Ry
     estimated scf accuracy    <       0.00104689 Ry

     iteration #  3     ecut=    30.00 Ry     beta= 0.70
     Davidson diagonalization with overlap

---- Real-time Memory Report at c_bands before calling an iterative solver
           444 MiB given to the printing process from OS
             0 MiB allocation reported by mallinfo(arena+hblkhd)
           169 MiB available memory on the node where the printing process lives
------------------
     ethr =  5.23E-05,  avg # of iterations = 11.0

     negative rho (up, down):  2.041E-02 0.000E+00

     total cpu time spent up to now is        4.8 secs

     total energy              =      -2.31842813 Ry
     estimated scf accuracy    <       0.00001333 Ry

     iteration #  4     ecut=    30.00 Ry     beta= 0.70
     Davidson diagonalization with overlap

---- Real-time Memory Report at c_bands before calling an iterative solver
           462 MiB given to the printing process from OS
             0 MiB allocation reported by mallinfo(arena+hblkhd)
           150 MiB available memory on the node where the printing process lives
------------------
     ethr =  6.66E-07,  avg # of iterations =  5.0

     negative rho (up, down):  2.040E-02 0.000E+00

     total cpu time spent up to now is        6.0 secs

     total energy              =      -2.31843347 Ry
     estimated scf accuracy    <       0.00000030 Ry

     iteration #  5     ecut=    30.00 Ry     beta= 0.70
     Davidson diagonalization with overlap

---- Real-time Memory Report at c_bands before calling an iterative solver
           481 MiB given to the printing process from OS
             0 MiB allocation reported by mallinfo(arena+hblkhd)
           132 MiB available memory on the node where the printing process lives
------------------
     ethr =  1.50E-08,  avg # of iterations =  2.0

     negative rho (up, down):  2.040E-02 0.000E+00

     total cpu time spent up to now is        7.1 secs

     total energy              =      -2.31843210 Ry
     estimated scf accuracy    <       0.00000003 Ry

     iteration #  6     ecut=    30.00 Ry     beta= 0.70
     Davidson diagonalization with overlap

---- Real-time Memory Report at c_bands before calling an iterative solver
           499 MiB given to the printing process from OS
             0 MiB allocation reported by mallinfo(arena+hblkhd)
           135 MiB available memory on the node where the printing process lives
------------------
     ethr =  1.49E-09,  avg # of iterations =  2.0

     negative rho (up, down):  2.040E-02 0.000E+00

     total cpu time spent up to now is        8.1 secs

     End of self-consistent calculation

          k =-0.5000-0.5000-0.5000 ( 74736 PWs)   bands (ev):

   -10.1648  -0.5650

     occupation numbers 
     1.0000   0.0000

     highest occupied, lowest unoccupied level (ev):   -10.1648   -0.5650

!    total energy              =      -2.31843253 Ry
     estimated scf accuracy    <          5.9E-12 Ry

     The total energy is the sum of the following terms:
     one-electron contribution =      -4.12788208 Ry
     hartree contribution      =       2.19155230 Ry
     xc contribution           =      -1.36099931 Ry
     ewald contribution        =       0.97889656 Ry

     convergence has been achieved in   6 iterations

     Forces acting on atoms (cartesian axes, Ry/au):

     atom    1 type  1   force =     0.03669490    0.00000000    0.00000000
     atom    2 type  1   force =    -0.03669490    0.00000000    0.00000000
     The non-local contrib.  to forces
     atom    1 type  1   force =     0.09837759    0.00000000    0.00000000
     atom    2 type  1   force =    -0.09835610    0.00000000    0.00000000
     The ionic contribution  to forces
     atom    1 type  1   force =    -0.92008020   -0.00000000   -0.00000000
     atom    2 type  1   force =     0.92008020   -0.00000000   -0.00000000
     The local contribution  to forces
     atom    1 type  1   force =     0.85841389    0.00000000    0.00000000
     atom    2 type  1   force =    -0.85840319    0.00000000    0.00000000
     The core correction contribution to forces
     atom    1 type  1   force =     0.00000000    0.00000000    0.00000000
     atom    2 type  1   force =     0.00000000    0.00000000    0.00000000
     The Hubbard contrib.    to forces
     atom    1 type  1   force =     0.00000000    0.00000000    0.00000000
     atom    2 type  1   force =     0.00000000    0.00000000    0.00000000
     The SCF correction term to forces
     atom    1 type  1   force =     0.00000099   -0.00000000    0.00000000
     atom    2 type  1   force =     0.00000156   -0.00000000    0.00000000

     Total force =     0.051894     Total SCF correction =     0.000002

     BFGS Geometry Optimization
     Energy error            =      0.0E+00 Ry
     Gradient error          =      3.7E-02 Ry/Bohr

     number of scf cycles    =   1
     number of bfgs steps    =   0

     energy             new  =      -2.3184325340 Ry

     new trust radius        =       0.0366949018 bohr
     new conv_thr            =       0.0000000100 Ry


ATOMIC_POSITIONS (angstrom)
H             0.0194181058        0.0000000000        0.0000000000
H             0.7605818942        0.0000000000        0.0000000000



     Writing config-only to output data dir ./.save/
     NEW-OLD atomic charge density approx. for the potential

     negative rho (up, down):  2.085E-02 0.000E+00

     total cpu time spent up to now is        9.2 secs

     Self-consistent Calculation

     iteration #  1     ecut=    30.00 Ry     beta= 0.70
     Davidson diagonalization with overlap

---- Real-time Memory Report at c_bands before calling an iterative solver
           508 MiB given to the printing process from OS
             0 MiB allocation reported by mallinfo(arena+hblkhd)
           379 MiB available memory on the node where the printing process lives
------------------
     ethr =  1.00E-06,  avg # of iterations =  7.0

     negative rho (up, down):  2.179E-02 0.000E+00

     total cpu time spent up to now is       10.6 secs

     total energy              =      -2.31859047 Ry
     estimated scf accuracy    <       0.00042182 Ry

     iteration #  2     ecut=    30.00 Ry     beta= 0.70
     Davidson diagonalization with overlap

---- Real-time Memory Report at c_bands before calling an iterative solver
           508 MiB given to the printing process from OS
             0 MiB allocation reported by mallinfo(arena+hblkhd)
           198 MiB available memory on the node where the printing process lives
------------------
     ethr =  2.11E-05,  avg # of iterations =  1.0

     negative rho (up, down):  2.200E-02 0.000E+00

     total cpu time spent up to now is       11.7 secs

     total energy              =      -2.31851391 Ry
     estimated scf accuracy    <       0.00000430 Ry

     iteration #  3     ecut=    30.00 Ry     beta= 0.70
     Davidson diagonalization with overlap

---- Real-time Memory Report at c_bands before calling an iterative solver
           508 MiB given to the printing process from OS
             0 MiB allocation reported by mallinfo(arena+hblkhd)
           180 MiB available memory on the node where the printing process lives
------------------
     ethr =  2.15E-07,  avg # of iterations =  3.0

     negative rho (up, down):  2.204E-02 0.000E+00

     total cpu time spent up to now is       12.8 secs

     total energy              =      -2.31849389 Ry
     estimated scf accuracy    <       0.00000021 Ry

     iteration #  4     ecut=    30.00 Ry     beta= 0.70
     Davidson diagonalization with overlap

---- Real-time Memory Report at c_bands before calling an iterative solver
           508 MiB given to the printing process from OS
             0 MiB allocation reported by mallinfo(arena+hblkhd)
           161 MiB available memory on the node where the printing process lives
------------------
     ethr =  1.03E-08,  avg # of iterations =  2.0

     negative rho (up, down):  2.204E-02 0.000E+00

     total cpu time spent up to now is       13.8 secs

     End of self-consistent calculation

          k =-0.5000-0.5000-0.5000 ( 74736 PWs)   bands (ev):

   -10.3550  -0.6548

     occupation numbers 
     1.0000   0.0000

     highest occupied, lowest unoccupied level (ev):   -10.3550   -0.6548

!    total energy              =      -2.31849489 Ry
     estimated scf accuracy    <          1.2E-10 Ry

     The total energy is the sum of the following terms:
     one-electron contribution =      -4.22627462 Ry
     hartree contribution      =       2.24318862 Ry
     xc contribution           =      -1.38537080 Ry
     ewald contribution        =       1.04996190 Ry

     convergence has been achieved in   4 iterations

     Forces acting on atoms (cartesian axes, Ry/au):

     atom    1 type  1   force =    -0.01346096    0.00000000    0.00000000
     atom    2 type  1   force =     0.01346096    0.00000000    0.00000000
     The non-local contrib.  to forces
     atom    1 type  1   force =     0.10761808    0.00000000    0.00000000
     atom    2 type  1   force =    -0.10773226    0.00000000    0.00000000
     The ionic contribution  to forces
     atom    1 type  1   force =    -1.01910169    0.00000000   -0.00000000
     atom    2 type  1   force =     1.01910169   -0.00000000   -0.00000000
     The local contribution  to forces
     atom    1 type  1   force =     0.89799531    0.00000000    0.00000000
     atom    2 type  1   force =    -0.89797296    0.00000000    0.00000000
     The core correction contribution to forces
     atom    1 type  1   force =     0.00000000    0.00000000    0.00000000
     atom    2 type  1   force =     0.00000000    0.00000000    0.00000000
     The Hubbard contrib.    to forces
     atom    1 type  1   force =     0.00000000    0.00000000    0.00000000
     atom    2 type  1   force =     0.00000000    0.00000000    0.00000000
     The SCF correction term to forces
     atom    1 type  1   force =    -0.00002654    0.00000000    0.00000000
     atom    2 type  1   force =     0.00001063    0.00000000    0.00000000

     Total force =     0.019037     Total SCF correction =     0.000029
     Energy error            =      6.2E-05 Ry
     Gradient error          =      1.3E-02 Ry/Bohr

     number of scf cycles    =   2
     number of bfgs steps    =   1

     energy             old  =      -2.3184325340 Ry
     energy             new  =      -2.3184948918 Ry

     CASE: energy            _new < energy            _old

     new trust radius        =       0.0098482729 bohr
     new conv_thr            =            1.0E-10 Ry


ATOMIC_POSITIONS (angstrom)
H             0.0142066242        0.0000000000        0.0000000000
H             0.7657933758        0.0000000000        0.0000000000



     Writing config-only to output data dir ./.save/
     NEW-OLD atomic charge density approx. for the potential

     negative rho (up, down):  2.189E-02 0.000E+00

     total cpu time spent up to now is       14.9 secs

     Self-consistent Calculation

     iteration #  1     ecut=    30.00 Ry     beta= 0.70
     Davidson diagonalization with overlap

---- Real-time Memory Report at c_bands before calling an iterative solver
           508 MiB given to the printing process from OS
             0 MiB allocation reported by mallinfo(arena+hblkhd)
           379 MiB available memory on the node where the printing process lives
------------------
     ethr =  1.00E-06,  avg # of iterations =  3.0

     negative rho (up, down):  2.165E-02 0.000E+00

     total cpu time spent up to now is       16.1 secs

     total energy              =      -2.31882831 Ry
     estimated scf accuracy    <       0.00003140 Ry

     iteration #  2     ecut=    30.00 Ry     beta= 0.70
     Davidson diagonalization with overlap

---- Real-time Memory Report at c_bands before calling an iterative solver
           508 MiB given to the printing process from OS
             0 MiB allocation reported by mallinfo(arena+hblkhd)
           198 MiB available memory on the node where the printing process lives
------------------
     ethr =  1.57E-06,  avg # of iterations =  1.0

     negative rho (up, down):  2.160E-02 0.000E+00

     total cpu time spent up to now is       17.1 secs

     total energy              =      -2.31885690 Ry
     estimated scf accuracy    <       0.00000036 Ry

     iteration #  3     ecut=    30.00 Ry     beta= 0.70
     Davidson diagonalization with overlap

---- Real-time Memory Report at c_bands before calling an iterative solver
           508 MiB given to the printing process from OS
             0 MiB allocation reported by mallinfo(arena+hblkhd)
           180 MiB available memory on the node where the printing process lives
------------------
     ethr =  1.79E-08,  avg # of iterations =  2.0

     negative rho (up, down):  2.159E-02 0.000E+00

     total cpu time spent up to now is       18.2 secs

     total energy              =      -2.31886429 Ry
     estimated scf accuracy    <       0.00000002 Ry

     iteration #  4     ecut=    30.00 Ry     beta= 0.70
     Davidson diagonalization with overlap

---- Real-time Memory Report at c_bands before calling an iterative solver
           508 MiB given to the printing process from OS
             0 MiB allocation reported by mallinfo(arena+hblkhd)
           161 MiB available memory on the node where the printing process lives
------------------
     ethr =  8.03E-10,  avg # of iterations =  2.0

     negative rho (up, down):  2.159E-02 0.000E+00

     total cpu time spent up to now is       19.2 secs

     End of self-consistent calculation

          k =-0.5000-0.5000-0.5000 ( 74736 PWs)   bands (ev):

   -10.3026  -0.6263

     occupation numbers 
     1.0000   0.0000

     highest occupied, lowest unoccupied level (ev):   -10.3026   -0.6263

!    total energy              =      -2.31886471 Ry
     estimated scf accuracy    <          5.3E-11 Ry

     The total energy is the sum of the following terms:
     one-electron contribution =      -4.19943150 Ry
     hartree contribution      =       2.22911374 Ry
     xc contribution           =      -1.37871462 Ry
     ewald contribution        =       1.03016767 Ry

     convergence has been achieved in   4 iterations

     Forces acting on atoms (cartesian axes, Ry/au):

     atom    1 type  1   force =     0.00177551    0.00000000    0.00000000
     atom    2 type  1   force =    -0.00177551    0.00000000    0.00000000
     The non-local contrib.  to forces
     atom    1 type  1   force =     0.10558954    0.00000000    0.00000000
     atom    2 type  1   force =    -0.10551200    0.00000000    0.00000000
     The ionic contribution  to forces
     atom    1 type  1   force =    -0.99101371    0.00000000   -0.00000000
     atom    2 type  1   force =     0.99101371    0.00000000   -0.00000000
     The local contribution  to forces
     atom    1 type  1   force =     0.88723785    0.00000000    0.00000000
     atom    2 type  1   force =    -0.88722124    0.00000000    0.00000000
     The core correction contribution to forces
     atom    1 type  1   force =     0.00000000    0.00000000    0.00000000
     atom    2 type  1   force =     0.00000000    0.00000000    0.00000000
     The Hubbard contrib.    to forces
     atom    1 type  1   force =     0.00000000    0.00000000    0.00000000
     atom    2 type  1   force =     0.00000000    0.00000000    0.00000000
     The SCF correction term to forces
     atom    1 type  1   force =     0.00001888    0.00000000    0.00000000
     atom    2 type  1   force =     0.00000108    0.00000000   -0.00000000

     Total force =     0.002511     Total SCF correction =     0.000019
     Energy error            =      3.7E-04 Ry
     Gradient error          =      1.8E-03 Ry/Bohr

     number of scf cycles    =   3
     number of bfgs steps    =   2

     energy             old  =      -2.3184948918 Ry
     energy             new  =      -2.3188647105 Ry

     CASE: energy            _new < energy            _old

     new trust radius        =       0.0011476240 bohr
     new conv_thr            =       0.0000000002 Ry


ATOMIC_POSITIONS (angstrom)
H             0.0148139206        0.0000000000        0.0000000000
H             0.7651860794        0.0000000000        0.0000000000



     Writing config-only to output data dir ./.save/
     NEW-OLD atomic charge density approx. for the potential

     negative rho (up, down):  2.161E-02 0.000E+00

     total cpu time spent up to now is       20.3 secs

     Self-consistent Calculation

     iteration #  1     ecut=    30.00 Ry     beta= 0.70
     Davidson diagonalization with overlap

---- Real-time Memory Report at c_bands before calling an iterative solver
           508 MiB given to the printing process from OS
             0 MiB allocation reported by mallinfo(arena+hblkhd)
           379 MiB available memory on the node where the printing process lives
------------------
     ethr =  1.00E-06,  avg # of iterations =  2.0

     Threshold (ethr) on eigenvalues was too large:
     Diagonalizing with lowered threshold

     Davidson diagonalization with overlap

---- Real-time Memory Report at c_bands before calling an iterative solver
           508 MiB given to the printing process from OS
             0 MiB allocation reported by mallinfo(arena+hblkhd)
           345 MiB available memory on the node where the printing process lives
------------------
     ethr =  1.96E-08,  avg # of iterations =  1.0

     negative rho (up, down):  2.163E-02 0.000E+00

     total cpu time spent up to now is       21.8 secs

     total energy              =      -2.31884554 Ry
     estimated scf accuracy    <       0.00000042 Ry

     iteration #  2     ecut=    30.00 Ry     beta= 0.70
     Davidson diagonalization with overlap

---- Real-time Memory Report at c_bands before calling an iterative solver
           508 MiB given to the printing process from OS
             0 MiB allocation reported by mallinfo(arena+hblkhd)
           198 MiB available memory on the node where the printing process lives
------------------
     ethr =  2.08E-08,  avg # of iterations =  2.0

     negative rho (up, down):  2.164E-02 0.000E+00

     total cpu time spent up to now is       22.8 secs

     total energy              =      -2.31884216 Ry
     estimated scf accuracy    <          5.2E-09 Ry

     iteration #  3     ecut=    30.00 Ry     beta= 0.70
     Davidson diagonalization with overlap

---- Real-time Memory Report at c_bands before calling an iterative solver
           508 MiB given to the printing process from OS
             0 MiB allocation reported by mallinfo(arena+hblkhd)
           180 MiB available memory on the node where the printing process lives
------------------
     ethr =  2.60E-10,  avg # of iterations =  2.0

     negative rho (up, down):  2.164E-02 0.000E+00

     total cpu time spent up to now is       23.8 secs

     End of self-consistent calculation

          k =-0.5000-0.5000-0.5000 ( 74736 PWs)   bands (ev):

   -10.3087  -0.6301

     occupation numbers 
     1.0000   0.0000

     highest occupied, lowest unoccupied level (ev):   -10.3087   -0.6301

!    total energy              =      -2.31883958 Ry
     estimated scf accuracy    <          1.7E-10 Ry

     The total energy is the sum of the following terms:
     one-electron contribution =      -4.20254140 Ry
     hartree contribution      =       2.23074331 Ry
     xc contribution           =      -1.37948748 Ry
     ewald contribution        =       1.03244598 Ry

     convergence has been achieved in   3 iterations

     Forces acting on atoms (cartesian axes, Ry/au):

     atom    1 type  1   force =     0.00007413    0.00000000    0.00000000
     atom    2 type  1   force =    -0.00007413    0.00000000    0.00000000
     The non-local contrib.  to forces
     atom    1 type  1   force =     0.10584391    0.00000000    0.00000000
     atom    2 type  1   force =    -0.10579012    0.00000000    0.00000000
     The ionic contribution  to forces
     atom    1 type  1   force =    -0.99422669    0.00000000   -0.00000000
     atom    2 type  1   force =     0.99422669   -0.00000000   -0.00000000
     The local contribution  to forces
     atom    1 type  1   force =     0.88848828    0.00000000    0.00000000
     atom    2 type  1   force =    -0.88846779    0.00000000    0.00000000
     The core correction contribution to forces
     atom    1 type  1   force =     0.00000000    0.00000000    0.00000000
     atom    2 type  1   force =     0.00000000    0.00000000    0.00000000
     The Hubbard contrib.    to forces
     atom    1 type  1   force =     0.00000000    0.00000000    0.00000000
     atom    2 type  1   force =     0.00000000    0.00000000    0.00000000
     The SCF correction term to forces
     atom    1 type  1   force =     0.00000485    0.00000000   -0.00000000
     atom    2 type  1   force =    -0.00000669    0.00000000    0.00000000

     Total force =     0.000105     Total SCF correction =     0.000008
     Energy error            =      2.5E-05 Ry
     Gradient error          =      7.4E-05 Ry/Bohr

     bfgs converged in   4 scf cycles and   3 bfgs steps
     (criteria: energy <  1.0E-04 Ry, force <  1.0E-03 Ry/Bohr)

     End of BFGS Geometry Optimization

     Final energy             =      -2.3188395833 Ry

     File ./.bfgs deleted, as requested
Begin final coordinates

ATOMIC_POSITIONS (angstrom)
H             0.0148139206        0.0000000000        0.0000000000
H             0.7651860794        0.0000000000        0.0000000000
End final coordinates



     Writing all to output data dir ./.save/

     init_run     :      0.99s CPU      1.04s WALL (       1 calls)
     electrons    :     19.58s CPU     19.74s WALL (       4 calls)
     update_pot   :      1.98s CPU      2.01s WALL (       3 calls)
     forces       :      1.05s CPU      1.08s WALL (       4 calls)

     Called by init_run:
     wfcinit      :      0.10s CPU      0.10s WALL (       1 calls)
     wfcinit:atom :      0.00s CPU      0.00s WALL (       1 calls)
     wfcinit:wfcr :      0.09s CPU      0.09s WALL (       1 calls)
     potinit      :      0.56s CPU      0.59s WALL (       1 calls)
     hinit0       :      0.05s CPU      0.06s WALL (       1 calls)

     Called by electrons:
     c_bands      :      5.38s CPU      5.38s WALL (      18 calls)
     sum_band     :      2.71s CPU      2.73s WALL (      18 calls)
     v_of_rho     :     11.44s CPU     11.52s WALL (      21 calls)
     v_h          :      0.80s CPU      0.80s WALL (      21 calls)
     v_xc         :     10.64s CPU     10.72s WALL (      21 calls)
     newd         :      0.94s CPU      0.95s WALL (      21 calls)
     mix_rho      :      1.02s CPU      1.07s WALL (      18 calls)

     Called by c_bands:
     init_us_2    :      0.07s CPU      0.07s WALL (      37 calls)
     init_us_2:cp :      0.07s CPU      0.07s WALL (      37 calls)
     cegterg      :      5.33s CPU      5.33s WALL (      18 calls)

     Called by sum_band:
     sum_band:wei :      0.00s CPU      0.00s WALL (      18 calls)
     sum_band:loo :      0.87s CPU      0.87s WALL (      18 calls)
     sum_band:buf :      0.00s CPU      0.00s WALL (      18 calls)
     sum_band:ini :      0.04s CPU      0.04s WALL (      18 calls)
     sum_band:cal :      0.01s CPU      0.01s WALL (      18 calls)
     sum_band:bec :      0.00s CPU      0.00s WALL (      18 calls)
     addusdens    :      0.21s CPU      0.23s WALL (      18 calls)
     addusd:skk   :      0.06s CPU      0.07s WALL (      18 calls)
     addusd:dgemm :      0.05s CPU      0.05s WALL (      18 calls)
     addusd:qvan2 :      0.06s CPU      0.06s WALL (      18 calls)

     Called by *egterg:
     cdiaghg      :      0.00s CPU      0.00s WALL (      66 calls)
     cegterg:over :      0.06s CPU      0.06s WALL (      52 calls)
     cegterg:upda :      0.04s CPU      0.04s WALL (      52 calls)
     cegterg:last :      0.10s CPU      0.10s WALL (      45 calls)
     h_psi        :      5.11s CPU      5.11s WALL (      71 calls)
     s_psi        :      0.02s CPU      0.02s WALL (      71 calls)
     g_psi        :      0.02s CPU      0.02s WALL (      52 calls)

     Called by h_psi:
     h_psi:calbec :      0.03s CPU      0.03s WALL (      71 calls)
     vloc_psi     :      5.04s CPU      5.04s WALL (      71 calls)
     add_vuspsi   :      0.03s CPU      0.03s WALL (      71 calls)

     General routines
     calbec       :      0.05s CPU      0.05s WALL (     105 calls)
     fft          :      7.14s CPU      7.15s WALL (     243 calls)
     ffts         :      0.55s CPU      0.55s WALL (      18 calls)
     fftw         :      5.29s CPU      5.29s WALL (     266 calls)


     PWSCF        :     23.96s CPU     24.24s WALL


   This run was terminated on:   4:16:32  28Feb2022            

=------------------------------------------------------------------------------=
   JOB DONE.
=------------------------------------------------------------------------------=
