
     Program PWSCF v.7.0 starts on 28Feb2022 at  3: 9: 6 

     This program is part of the open-source Quantum ESPRESSO suite
     for quantum simulation of materials; please cite
         "P. Giannozzi et al., J. Phys.:Condens. Matter 21 395502 (2009);
         "P. Giannozzi et al., J. Phys.:Condens. Matter 29 465901 (2017);
         "P. Giannozzi et al., J. Chem. Phys. 152 154105 (2020);
          URL http://www.quantum-espresso.org", 
     in publications or presentations arising from this work. More details at
     http://www.quantum-espresso.org/quote

     Serial version
     556 MiB available memory on the printing compute node when the environment starts

     Waiting for input...
     Reading input from standard input

     Current dimensions of program PWSCF are:
     Max number of different atomic species (ntypx) = 10
     Max number of k-points (npk) =  40000
     Max angular momentum in pseudopotentials (lmaxx) =  4

     File ./.update deleted, as requested

     File ./.bfgs deleted, as requested

    ============================================================
    |  pseudopotential report for atomic species:  1           |
    |        pseudo potential version   7   3   2              |
    ------------------------------------------------------------
    |  hydrogen            PBE                  exchange-corr  |
    |  z =   1.    zv( 1) =   1.    exfact =   5.00000         |
    |  ifpcor =  0           atomic energy =  -0.91772 Ry      |
    |  index    orbital      occupation    energy              |
    |    1        100           1.00       -0.48               |
    |  rinner =  0.5000                                        |
    |    new generation scheme:                                |
    |    nbeta =  1     kkbeta =  271     rcloc =    0.6000    |
    |    ibeta    l     epsilon   rcut                         |
    |      1       0      -0.48   0.80                         |
    ============================================================

     IMPORTANT: XC functional enforced from input :
     Exchange-correlation= BLYP
                           (   1   3   1   3   0   0   0)
     Any further DFT definition will be discarded
     Please, verify this is what you really want


     G-vector sticks info
     --------------------
     sticks:   dense  smooth     PW     G-vecs:    dense   smooth      PW
     Sum        4281    4281   1185               211657   211657   30551

     Using Slab Decomposition



     bravais-lattice index     =            1
     lattice parameter (alat)  =      30.0000  a.u.
     unit-cell volume          =   27000.0000 (a.u.)^3
     number of atoms/cell      =            2
     number of atomic types    =            1
     number of electrons       =         2.00
     number of Kohn-Sham states=            2
     kinetic-energy cutoff     =      15.0000  Ry
     charge density cutoff     =      60.0000  Ry
     scf convergence threshold =      1.0E-08
     mixing beta               =       0.7000
     number of iterations used =            8  plain     mixing
     energy convergence thresh.=      1.0E-04
     force convergence thresh. =      1.0E-03
     Exchange-correlation= BLYP
                           (   1   3   1   3   0   0   0)
     nstep                     =           50


     celldm(1)=  30.000000  celldm(2)=   0.000000  celldm(3)=   0.000000
     celldm(4)=   0.000000  celldm(5)=   0.000000  celldm(6)=   0.000000

     crystal axes: (cart. coord. in units of alat)
               a(1) = (   1.000000   0.000000   0.000000 )  
               a(2) = (   0.000000   1.000000   0.000000 )  
               a(3) = (   0.000000   0.000000   1.000000 )  

     reciprocal axes: (cart. coord. in units 2 pi/alat)
               b(1) = (  1.000000  0.000000  0.000000 )  
               b(2) = (  0.000000  1.000000  0.000000 )  
               b(3) = (  0.000000  0.000000  1.000000 )  


     PseudoPot. # 1 for hy read from file:
     /root/q-e/pseudo/H_US.van
     MD5 check sum: a9a9bfe98ff56cf4de197d71fc46bb44
     Pseudo is Ultrasoft, Zval =  1.0
     Generated by Vanderbilt code, v. 7.3.2
     Using radial grid of  399 points,  1 beta functions with: 
                l(1) =   0
     Q(r) pseudized with  8 coefficients,  rinner =    0.500

     atomic species   valence    mass     pseudopotential
        H              1.00     1.00784     hy( 1.00)

      8 Sym. Ops. (no inversion) found


                                    s                        frac. trans.

      isym =  1     identity                                     

 cryst.   s( 1) = (     1          0          0      )
                  (     0          1          0      )
                  (     0          0          1      )

 cart.    s( 1) = (  1.0000000  0.0000000  0.0000000 )
                  (  0.0000000  1.0000000  0.0000000 )
                  (  0.0000000  0.0000000  1.0000000 )


      isym =  2     180 deg rotation - cart. axis [1,0,0]        

 cryst.   s( 2) = (     1          0          0      )
                  (     0         -1          0      )
                  (     0          0         -1      )

 cart.    s( 2) = (  1.0000000  0.0000000  0.0000000 )
                  (  0.0000000 -1.0000000  0.0000000 )
                  (  0.0000000  0.0000000 -1.0000000 )


      isym =  3      90 deg rotation - cart. axis [-1,0,0]       

 cryst.   s( 3) = (     1          0          0      )
                  (     0          0         -1      )
                  (     0          1          0      )

 cart.    s( 3) = (  1.0000000  0.0000000  0.0000000 )
                  (  0.0000000  0.0000000  1.0000000 )
                  (  0.0000000 -1.0000000  0.0000000 )


      isym =  4      90 deg rotation - cart. axis [1,0,0]        

 cryst.   s( 4) = (     1          0          0      )
                  (     0          0          1      )
                  (     0         -1          0      )

 cart.    s( 4) = (  1.0000000  0.0000000  0.0000000 )
                  (  0.0000000  0.0000000 -1.0000000 )
                  (  0.0000000  1.0000000  0.0000000 )


      isym =  5     inv. 180 deg rotation - cart. axis [0,0,1]   

 cryst.   s( 5) = (     1          0          0      )
                  (     0          1          0      )
                  (     0          0         -1      )

 cart.    s( 5) = (  1.0000000  0.0000000  0.0000000 )
                  (  0.0000000  1.0000000  0.0000000 )
                  (  0.0000000  0.0000000 -1.0000000 )


      isym =  6     inv. 180 deg rotation - cart. axis [0,1,0]   

 cryst.   s( 6) = (     1          0          0      )
                  (     0         -1          0      )
                  (     0          0          1      )

 cart.    s( 6) = (  1.0000000  0.0000000  0.0000000 )
                  (  0.0000000 -1.0000000  0.0000000 )
                  (  0.0000000  0.0000000  1.0000000 )


      isym =  7     inv. 180 deg rotation - cart. axis [0,1,1]   

 cryst.   s( 7) = (     1          0          0      )
                  (     0          0         -1      )
                  (     0         -1          0      )

 cart.    s( 7) = (  1.0000000  0.0000000  0.0000000 )
                  (  0.0000000  0.0000000 -1.0000000 )
                  (  0.0000000 -1.0000000  0.0000000 )


      isym =  8     inv. 180 deg rotation - cart. axis [0,1,-1]  

 cryst.   s( 8) = (     1          0          0      )
                  (     0          0          1      )
                  (     0          1          0      )

 cart.    s( 8) = (  1.0000000  0.0000000  0.0000000 )
                  (  0.0000000  0.0000000  1.0000000 )
                  (  0.0000000  1.0000000  0.0000000 )


     point group C_4v (4mm) 
     there are  5 classes
     the character table:

       E     2C4   C2    2s_v  2s_d 
A_1    1.00  1.00  1.00  1.00  1.00
A_2    1.00  1.00  1.00 -1.00 -1.00
B_1    1.00 -1.00  1.00  1.00 -1.00
B_2    1.00 -1.00  1.00 -1.00  1.00
E      2.00  0.00 -2.00  0.00  0.00

     the symmetry operations in each class and the name of the first element:

     E        1
          identity                                               
     2C4      3    4
           90 deg rotation - cart. axis [-1,0,0]                 
     C2       2
          180 deg rotation - cart. axis [1,0,0]                  
     2s_v     5    6
          inv. 180 deg rotation - cart. axis [0,0,1]             
     2s_d     7    8
          inv. 180 deg rotation - cart. axis [0,1,1]             

   Cartesian axes

     site n.     atom                  positions (alat units)
         1           H   tau(   1) = (   0.0000000   0.0000000   0.0000000  )
         2           H   tau(   2) = (   0.0541721   0.0000000   0.0000000  )

   Crystallographic axes

     site n.     atom                  positions (cryst. coord.)
         1           H   tau(   1) = (  0.0000000  0.0000000  0.0000000  )
         2           H   tau(   2) = (  0.0541721  0.0000000  0.0000000  )

     number of k points=     1
                       cart. coord. in units 2pi/alat
        k(    1) = (  -0.5000000  -0.5000000  -0.5000000), wk =   2.0000000

                       cryst. coord.
        k(    1) = (  -0.5000000  -0.5000000  -0.5000000), wk =   2.0000000

     Dense  grid:   211657 G-vectors     FFT dimensions: (  75,  75,  75)

     Dynamical RAM for                 wfc:       0.81 MB

     Dynamical RAM for     wfc (w. buffer):       0.81 MB

     Dynamical RAM for           str. fact:       3.23 MB

     Dynamical RAM for           local pot:       0.00 MB

     Dynamical RAM for          nlocal pot:       0.81 MB

     Dynamical RAM for                qrad:       0.01 MB

     Dynamical RAM for          rho,v,vnew:      19.34 MB

     Dynamical RAM for               rhoin:       6.45 MB

     Dynamical RAM for            rho*nmix:      51.67 MB

     Dynamical RAM for           G-vectors:      13.73 MB

     Dynamical RAM for          h,s,v(r/c):       0.00 MB

     Dynamical RAM for          <psi|beta>:       0.00 MB

     Dynamical RAM for                 psi:       1.62 MB

     Dynamical RAM for                hpsi:       1.62 MB

     Dynamical RAM for                spsi:       1.62 MB

     Dynamical RAM for      wfcinit/wfcrot:       1.62 MB

     Dynamical RAM for           addusdens:      19.38 MB

     Dynamical RAM for          addusforce:      27.45 MB

     Estimated static dynamical RAM per process >      66.92 MB

     Estimated max dynamical RAM per process >     146.05 MB

     Initial potential from superposition of free atoms

     starting charge       2.0000, renormalised to       2.0000

     negative rho (up, down):  1.020E-01 0.000E+00
     Starting wfcs are    2 randomized atomic wfcs

     total cpu time spent up to now is        0.4 secs

     Self-consistent Calculation

     iteration #  1     ecut=    15.00 Ry     beta= 0.70
     Davidson diagonalization with overlap

---- Real-time Memory Report at c_bands before calling an iterative solver
           124 MiB given to the printing process from OS
             0 MiB allocation reported by mallinfo(arena+hblkhd)
           473 MiB available memory on the node where the printing process lives
------------------
     ethr =  1.00E-02,  avg # of iterations =  3.0

     negative rho (up, down):  1.519E-01 0.000E+00

     total cpu time spent up to now is        0.8 secs

     total energy              =      -2.29012181 Ry
     estimated scf accuracy    <       0.08901947 Ry

     iteration #  2     ecut=    15.00 Ry     beta= 0.70
     Davidson diagonalization with overlap

---- Real-time Memory Report at c_bands before calling an iterative solver
           152 MiB given to the printing process from OS
             0 MiB allocation reported by mallinfo(arena+hblkhd)
           415 MiB available memory on the node where the printing process lives
------------------
     ethr =  4.45E-03,  avg # of iterations =  2.0

     negative rho (up, down):  1.629E-01 0.000E+00

     total cpu time spent up to now is        1.2 secs

     total energy              =      -2.28996676 Ry
     estimated scf accuracy    <       0.00119949 Ry

     iteration #  3     ecut=    15.00 Ry     beta= 0.70
     Davidson diagonalization with overlap

---- Real-time Memory Report at c_bands before calling an iterative solver
           159 MiB given to the printing process from OS
             0 MiB allocation reported by mallinfo(arena+hblkhd)
           409 MiB available memory on the node where the printing process lives
------------------
     ethr =  6.00E-05,  avg # of iterations = 12.0

     negative rho (up, down):  1.629E-01 0.000E+00

     total cpu time spent up to now is        1.7 secs

     total energy              =      -2.29008564 Ry
     estimated scf accuracy    <       0.00001238 Ry

     iteration #  4     ecut=    15.00 Ry     beta= 0.70
     Davidson diagonalization with overlap

---- Real-time Memory Report at c_bands before calling an iterative solver
           165 MiB given to the printing process from OS
             0 MiB allocation reported by mallinfo(arena+hblkhd)
           402 MiB available memory on the node where the printing process lives
------------------
     ethr =  6.19E-07,  avg # of iterations =  6.0

     negative rho (up, down):  1.631E-01 0.000E+00

     total cpu time spent up to now is        2.1 secs

     total energy              =      -2.28999373 Ry
     estimated scf accuracy    <       0.00000036 Ry

     iteration #  5     ecut=    15.00 Ry     beta= 0.70
     Davidson diagonalization with overlap

---- Real-time Memory Report at c_bands before calling an iterative solver
           172 MiB given to the printing process from OS
             0 MiB allocation reported by mallinfo(arena+hblkhd)
           396 MiB available memory on the node where the printing process lives
------------------
     ethr =  1.79E-08,  avg # of iterations =  3.0

     negative rho (up, down):  1.631E-01 0.000E+00

     total cpu time spent up to now is        2.5 secs

     total energy              =      -2.28999456 Ry
     estimated scf accuracy    <       0.00000003 Ry

     iteration #  6     ecut=    15.00 Ry     beta= 0.70
     Davidson diagonalization with overlap

---- Real-time Memory Report at c_bands before calling an iterative solver
           178 MiB given to the printing process from OS
             0 MiB allocation reported by mallinfo(arena+hblkhd)
           389 MiB available memory on the node where the printing process lives
------------------
     ethr =  1.68E-09,  avg # of iterations =  3.0

     negative rho (up, down):  1.631E-01 0.000E+00

     total cpu time spent up to now is        2.8 secs

     End of self-consistent calculation

          k =-0.5000-0.5000-0.5000 ( 26344 PWs)   bands (ev):

   -10.1332  -1.5527

     occupation numbers 
     1.0000   0.0000

     highest occupied, lowest unoccupied level (ev):   -10.1332   -1.5527

!    total energy              =      -2.28998963 Ry
     estimated scf accuracy    <          9.1E-09 Ry

     The total energy is the sum of the following terms:
     one-electron contribution =      -3.93679645 Ry
     hartree contribution      =       2.12000555 Ry
     xc contribution           =      -1.32594859 Ry
     ewald contribution        =       0.85274986 Ry

     convergence has been achieved in   6 iterations

     Forces acting on atoms (cartesian axes, Ry/au):

     atom    1 type  1   force =     0.11709572    0.00000000    0.00000000
     atom    2 type  1   force =    -0.11709572    0.00000000    0.00000000
     The non-local contrib.  to forces
     atom    1 type  1   force =     0.07550408    0.00000000    0.00000000
     atom    2 type  1   force =    -0.07711332    0.00000000    0.00000000
     The ionic contribution  to forces
     atom    1 type  1   force =    -0.75673456   -0.00000000   -0.00000000
     atom    2 type  1   force =     0.75673456   -0.00000000   -0.00000000
     The local contribution  to forces
     atom    1 type  1   force =     0.79721227    0.00000000    0.00000000
     atom    2 type  1   force =    -0.79737926    0.00000000    0.00000000
     The core correction contribution to forces
     atom    1 type  1   force =     0.00000000    0.00000000    0.00000000
     atom    2 type  1   force =     0.00000000    0.00000000    0.00000000
     The Hubbard contrib.    to forces
     atom    1 type  1   force =     0.00000000    0.00000000    0.00000000
     atom    2 type  1   force =     0.00000000    0.00000000    0.00000000
     The SCF correction term to forces
     atom    1 type  1   force =    -0.00020423   -0.00000000   -0.00000000
     atom    2 type  1   force =    -0.00065584   -0.00000000    0.00000000

     Total force =     0.165598     Total SCF correction =     0.000687

     BFGS Geometry Optimization
     Energy error            =      0.0E+00 Ry
     Gradient error          =      1.2E-01 Ry/Bohr

     number of scf cycles    =   1
     number of bfgs steps    =   0

     energy             new  =      -2.2899896319 Ry

     new trust radius        =       0.1170957171 bohr
     new conv_thr            =       0.0000000100 Ry


ATOMIC_POSITIONS (angstrom)
H             0.0619643850        0.0000000000        0.0000000000
H             0.7980356150        0.0000000000        0.0000000000



     Writing config-only to output data dir ./.save/
     NEW-OLD atomic charge density approx. for the potential

     negative rho (up, down):  1.526E-01 0.000E+00

     total cpu time spent up to now is        3.2 secs

     Self-consistent Calculation

     iteration #  1     ecut=    15.00 Ry     beta= 0.70
     Davidson diagonalization with overlap

---- Real-time Memory Report at c_bands before calling an iterative solver
           181 MiB given to the printing process from OS
             0 MiB allocation reported by mallinfo(arena+hblkhd)
           469 MiB available memory on the node where the printing process lives
------------------
     ethr =  1.00E-06,  avg # of iterations =  7.0

     negative rho (up, down):  1.722E-01 0.000E+00

     total cpu time spent up to now is        3.7 secs

     total energy              =      -2.30175107 Ry
     estimated scf accuracy    <       0.00349408 Ry

     iteration #  2     ecut=    15.00 Ry     beta= 0.70
     Davidson diagonalization with overlap

---- Real-time Memory Report at c_bands before calling an iterative solver
           181 MiB given to the printing process from OS
             0 MiB allocation reported by mallinfo(arena+hblkhd)
           412 MiB available memory on the node where the printing process lives
------------------
     ethr =  1.75E-04,  avg # of iterations =  1.0

     negative rho (up, down):  1.773E-01 0.000E+00

     total cpu time spent up to now is        4.0 secs

     total energy              =      -2.29921604 Ry
     estimated scf accuracy    <       0.00003602 Ry

     iteration #  3     ecut=    15.00 Ry     beta= 0.70
     Davidson diagonalization with overlap

---- Real-time Memory Report at c_bands before calling an iterative solver
           181 MiB given to the printing process from OS
             0 MiB allocation reported by mallinfo(arena+hblkhd)
           406 MiB available memory on the node where the printing process lives
------------------
     ethr =  1.80E-06,  avg # of iterations =  5.0

     negative rho (up, down):  1.785E-01 0.000E+00

     total cpu time spent up to now is        4.4 secs

     total energy              =      -2.29844197 Ry
     estimated scf accuracy    <       0.00000145 Ry

     iteration #  4     ecut=    15.00 Ry     beta= 0.70
     Davidson diagonalization with overlap

---- Real-time Memory Report at c_bands before calling an iterative solver
           181 MiB given to the printing process from OS
             0 MiB allocation reported by mallinfo(arena+hblkhd)
           399 MiB available memory on the node where the printing process lives
------------------
     ethr =  7.26E-08,  avg # of iterations =  3.0

     negative rho (up, down):  1.786E-01 0.000E+00

     total cpu time spent up to now is        4.8 secs

     total energy              =      -2.29843970 Ry
     estimated scf accuracy    <       0.00000020 Ry

     iteration #  5     ecut=    15.00 Ry     beta= 0.70
     Davidson diagonalization with overlap

---- Real-time Memory Report at c_bands before calling an iterative solver
           181 MiB given to the printing process from OS
             0 MiB allocation reported by mallinfo(arena+hblkhd)
           393 MiB available memory on the node where the printing process lives
------------------
     ethr =  1.00E-08,  avg # of iterations =  3.0

     negative rho (up, down):  1.785E-01 0.000E+00

     total cpu time spent up to now is        5.2 secs

     total energy              =      -2.29846211 Ry
     estimated scf accuracy    <       0.00000005 Ry

     iteration #  6     ecut=    15.00 Ry     beta= 0.70
     Davidson diagonalization with overlap

---- Real-time Memory Report at c_bands before calling an iterative solver
           183 MiB given to the printing process from OS
             0 MiB allocation reported by mallinfo(arena+hblkhd)
           386 MiB available memory on the node where the printing process lives
------------------
     ethr =  2.66E-09,  avg # of iterations =  3.0

     negative rho (up, down):  1.785E-01 0.000E+00

     total cpu time spent up to now is        5.6 secs

     End of self-consistent calculation

          k =-0.5000-0.5000-0.5000 ( 26344 PWs)   bands (ev):

   -10.7250  -1.4404

     occupation numbers 
     1.0000   0.0000

     highest occupied, lowest unoccupied level (ev):   -10.7250   -1.4404

!    total energy              =      -2.29852876 Ry
     estimated scf accuracy    <          5.5E-09 Ry

     The total energy is the sum of the following terms:
     one-electron contribution =      -4.23700963 Ry
     hartree contribution      =       2.27690976 Ry
     xc contribution           =      -1.39826607 Ry
     ewald contribution        =       1.05983718 Ry

     convergence has been achieved in   6 iterations

     Forces acting on atoms (cartesian axes, Ry/au):

     atom    1 type  1   force =     0.02577665    0.00000000    0.00000000
     atom    2 type  1   force =    -0.02577665    0.00000000    0.00000000
     The non-local contrib.  to forces
     atom    1 type  1   force =     0.13843518    0.00000000    0.00000000
     atom    2 type  1   force =    -0.13972334    0.00000000    0.00000000
     The ionic contribution  to forces
     atom    1 type  1   force =    -1.03326105   -0.00000000   -0.00000000
     atom    2 type  1   force =     1.03326105   -0.00000000   -0.00000000
     The local contribution  to forces
     atom    1 type  1   force =     0.91939126    0.00000000    0.00000000
     atom    2 type  1   force =    -0.91957042    0.00000000    0.00000000
     The core correction contribution to forces
     atom    1 type  1   force =     0.00000000    0.00000000    0.00000000
     atom    2 type  1   force =     0.00000000    0.00000000    0.00000000
     The Hubbard contrib.    to forces
     atom    1 type  1   force =     0.00000000    0.00000000    0.00000000
     atom    2 type  1   force =     0.00000000    0.00000000    0.00000000
     The SCF correction term to forces
     atom    1 type  1   force =     0.00011706   -0.00000000   -0.00000000
     atom    2 type  1   force =    -0.00083814   -0.00000000    0.00000000

     Total force =     0.036454     Total SCF correction =     0.000846
     Energy error            =      8.5E-03 Ry
     Gradient error          =      2.6E-02 Ry/Bohr

     number of scf cycles    =   2
     number of bfgs steps    =   1

     energy             old  =      -2.2899896319 Ry
     energy             new  =      -2.2985287633 Ry

     CASE: energy            _new < energy            _old

     new trust radius        =       0.0330526329 bohr
     new conv_thr            =       0.0000000026 Ry


ATOMIC_POSITIONS (angstrom)
H             0.0794550850        0.0000000000        0.0000000000
H             0.7805449150        0.0000000000        0.0000000000



     Writing config-only to output data dir ./.save/
     NEW-OLD atomic charge density approx. for the potential

     negative rho (up, down):  1.788E-01 0.000E+00

     total cpu time spent up to now is        5.9 secs

     Self-consistent Calculation

     iteration #  1     ecut=    15.00 Ry     beta= 0.70
     Davidson diagonalization with overlap

---- Real-time Memory Report at c_bands before calling an iterative solver
           183 MiB given to the printing process from OS
             0 MiB allocation reported by mallinfo(arena+hblkhd)
           469 MiB available memory on the node where the printing process lives
------------------
     ethr =  1.00E-06,  avg # of iterations =  5.0

     negative rho (up, down):  1.856E-01 0.000E+00

     total cpu time spent up to now is        6.4 secs

     total energy              =      -2.29507498 Ry
     estimated scf accuracy    <       0.00035951 Ry

     iteration #  2     ecut=    15.00 Ry     beta= 0.70
     Davidson diagonalization with overlap

---- Real-time Memory Report at c_bands before calling an iterative solver
           183 MiB given to the printing process from OS
             0 MiB allocation reported by mallinfo(arena+hblkhd)
           412 MiB available memory on the node where the printing process lives
------------------
     ethr =  1.80E-05,  avg # of iterations =  2.0

     negative rho (up, down):  1.873E-01 0.000E+00

     total cpu time spent up to now is        6.8 secs

     total energy              =      -2.29410351 Ry
     estimated scf accuracy    <       0.00000505 Ry

     iteration #  3     ecut=    15.00 Ry     beta= 0.70
     Davidson diagonalization with overlap

---- Real-time Memory Report at c_bands before calling an iterative solver
           183 MiB given to the printing process from OS
             0 MiB allocation reported by mallinfo(arena+hblkhd)
           405 MiB available memory on the node where the printing process lives
------------------
     ethr =  2.53E-07,  avg # of iterations =  5.0

     negative rho (up, down):  1.876E-01 0.000E+00

     total cpu time spent up to now is        7.2 secs

     total energy              =      -2.29394273 Ry
     estimated scf accuracy    <       0.00000049 Ry

     iteration #  4     ecut=    15.00 Ry     beta= 0.70
     Davidson diagonalization with overlap

---- Real-time Memory Report at c_bands before calling an iterative solver
           183 MiB given to the printing process from OS
             0 MiB allocation reported by mallinfo(arena+hblkhd)
           399 MiB available memory on the node where the printing process lives
------------------
     ethr =  2.44E-08,  avg # of iterations =  3.0

     negative rho (up, down):  1.877E-01 0.000E+00

     total cpu time spent up to now is        7.6 secs

     total energy              =      -2.29388116 Ry
     estimated scf accuracy    <       0.00000127 Ry

     iteration #  5     ecut=    15.00 Ry     beta= 0.70
     Davidson diagonalization with overlap

---- Real-time Memory Report at c_bands before calling an iterative solver
           183 MiB given to the printing process from OS
             0 MiB allocation reported by mallinfo(arena+hblkhd)
           392 MiB available memory on the node where the printing process lives
------------------
     ethr =  2.44E-08,  avg # of iterations =  3.0

     negative rho (up, down):  1.877E-01 0.000E+00

     total cpu time spent up to now is        8.0 secs

     total energy              =      -2.29386914 Ry
     estimated scf accuracy    <       0.00000010 Ry

     iteration #  6     ecut=    15.00 Ry     beta= 0.70
     Davidson diagonalization with overlap

---- Real-time Memory Report at c_bands before calling an iterative solver
           183 MiB given to the printing process from OS
             0 MiB allocation reported by mallinfo(arena+hblkhd)
           386 MiB available memory on the node where the printing process lives
------------------
     ethr =  5.11E-09,  avg # of iterations =  3.0

     negative rho (up, down):  1.877E-01 0.000E+00

     total cpu time spent up to now is        8.4 secs

     total energy              =      -2.29385330 Ry
     estimated scf accuracy    <       0.00000001 Ry

     iteration #  7     ecut=    15.00 Ry     beta= 0.70
     Davidson diagonalization with overlap

---- Real-time Memory Report at c_bands before calling an iterative solver
           189 MiB given to the printing process from OS
             0 MiB allocation reported by mallinfo(arena+hblkhd)
           379 MiB available memory on the node where the printing process lives
------------------
     ethr =  5.48E-10,  avg # of iterations =  4.0

     negative rho (up, down):  1.877E-01 0.000E+00

     total cpu time spent up to now is        8.8 secs

     total energy              =      -2.29386087 Ry
     estimated scf accuracy    <       0.00000008 Ry

     iteration #  8     ecut=    15.00 Ry     beta= 0.70
     Davidson diagonalization with overlap

---- Real-time Memory Report at c_bands before calling an iterative solver
           195 MiB given to the printing process from OS
             0 MiB allocation reported by mallinfo(arena+hblkhd)
           373 MiB available memory on the node where the printing process lives
------------------
     ethr =  5.48E-10,  avg # of iterations =  3.0

     negative rho (up, down):  1.877E-01 0.000E+00

     total cpu time spent up to now is        9.2 secs

     total energy              =      -2.29385582 Ry
     estimated scf accuracy    <       0.00000002 Ry

     iteration #  9     ecut=    15.00 Ry     beta= 0.70
     Davidson diagonalization with overlap

---- Real-time Memory Report at c_bands before calling an iterative solver
           202 MiB given to the printing process from OS
             0 MiB allocation reported by mallinfo(arena+hblkhd)
           366 MiB available memory on the node where the printing process lives
------------------
     ethr =  5.48E-10,  avg # of iterations =  3.0

     negative rho (up, down):  1.877E-01 0.000E+00

     total cpu time spent up to now is        9.6 secs

     total energy              =      -2.29386310 Ry
     estimated scf accuracy    <       0.00000003 Ry

     iteration # 10     ecut=    15.00 Ry     beta= 0.70
     Davidson diagonalization with overlap

---- Real-time Memory Report at c_bands before calling an iterative solver
           208 MiB given to the printing process from OS
             0 MiB allocation reported by mallinfo(arena+hblkhd)
           360 MiB available memory on the node where the printing process lives
------------------
     ethr =  5.48E-10,  avg # of iterations =  4.0

     negative rho (up, down):  1.878E-01 0.000E+00

     total cpu time spent up to now is        9.9 secs

     End of self-consistent calculation

          k =-0.5000-0.5000-0.5000 ( 26344 PWs)   bands (ev):

   -10.9220  -1.4314

     occupation numbers 
     1.0000   0.0000

     highest occupied, lowest unoccupied level (ev):   -10.9220   -1.4314

!    total energy              =      -2.29384073 Ry
     estimated scf accuracy    <          4.3E-10 Ry

     The total energy is the sum of the following terms:
     one-electron contribution =      -4.33013844 Ry
     hartree contribution      =       2.32647822 Ry
     xc contribution           =      -1.42173188 Ry
     ewald contribution        =       1.13155137 Ry

     convergence has been achieved in  10 iterations

     Forces acting on atoms (cartesian axes, Ry/au):

     atom    1 type  1   force =    -0.00897916    0.00000000    0.00000000
     atom    2 type  1   force =     0.00897916    0.00000000    0.00000000
     The non-local contrib.  to forces
     atom    1 type  1   force =     0.17750640    0.00000000    0.00000000
     atom    2 type  1   force =    -0.17481911    0.00000000    0.00000000
     The ionic contribution  to forces
     atom    1 type  1   force =    -1.13900937    0.00000000   -0.00000000
     atom    2 type  1   force =     1.13900937   -0.00000000   -0.00000000
     The local contribution  to forces
     atom    1 type  1   force =     0.95390482    0.00000000    0.00000000
     atom    2 type  1   force =    -0.95387709    0.00000000    0.00000000
     The core correction contribution to forces
     atom    1 type  1   force =     0.00000000    0.00000000    0.00000000
     atom    2 type  1   force =     0.00000000    0.00000000    0.00000000
     The Hubbard contrib.    to forces
     atom    1 type  1   force =     0.00000000    0.00000000    0.00000000
     atom    2 type  1   force =     0.00000000    0.00000000    0.00000000
     The SCF correction term to forces
     atom    1 type  1   force =     0.00017337   -0.00000000    0.00000000
     atom    2 type  1   force =     0.00022037   -0.00000000   -0.00000000

     Total force =     0.012698     Total SCF correction =     0.000280
     Energy error            =      4.7E-03 Ry
     Gradient error          =      9.0E-03 Ry/Bohr

     number of scf cycles    =   3
     number of bfgs steps    =   2

     energy             old  =      -2.2985287633 Ry
     energy             new  =      -2.2938407348 Ry

     CASE: energy            _new > energy            _old

     new trust radius        =       0.0044055669 bohr
     new conv_thr            =       0.0000000026 Ry


ATOMIC_POSITIONS (angstrom)
H             0.0642957106        0.0000000000        0.0000000000
H             0.7957042894        0.0000000000        0.0000000000



     Writing config-only to output data dir ./.save/
     NEW-OLD atomic charge density approx. for the potential

     negative rho (up, down):  1.861E-01 0.000E+00

     total cpu time spent up to now is       10.3 secs

     Self-consistent Calculation

     iteration #  1     ecut=    15.00 Ry     beta= 0.70
     Davidson diagonalization with overlap

---- Real-time Memory Report at c_bands before calling an iterative solver
           208 MiB given to the printing process from OS
             0 MiB allocation reported by mallinfo(arena+hblkhd)
           469 MiB available memory on the node where the printing process lives
------------------
     ethr =  1.00E-06,  avg # of iterations =  5.0

     negative rho (up, down):  1.806E-01 0.000E+00

     total cpu time spent up to now is       10.8 secs

     total energy              =      -2.29749250 Ry
     estimated scf accuracy    <       0.00031619 Ry

     iteration #  2     ecut=    15.00 Ry     beta= 0.70
     Davidson diagonalization with overlap

---- Real-time Memory Report at c_bands before calling an iterative solver
           208 MiB given to the printing process from OS
             0 MiB allocation reported by mallinfo(arena+hblkhd)
           412 MiB available memory on the node where the printing process lives
------------------
     ethr =  1.58E-05,  avg # of iterations =  2.0

     negative rho (up, down):  1.798E-01 0.000E+00

     total cpu time spent up to now is       11.2 secs

     total energy              =      -2.29802500 Ry
     estimated scf accuracy    <       0.00000215 Ry

     iteration #  3     ecut=    15.00 Ry     beta= 0.70
     Davidson diagonalization with overlap

---- Real-time Memory Report at c_bands before calling an iterative solver
           208 MiB given to the printing process from OS
             0 MiB allocation reported by mallinfo(arena+hblkhd)
           405 MiB available memory on the node where the printing process lives
------------------
     ethr =  1.07E-07,  avg # of iterations =  5.0

     negative rho (up, down):  1.796E-01 0.000E+00

     total cpu time spent up to now is       11.6 secs

     total energy              =      -2.29815670 Ry
     estimated scf accuracy    <       0.00000014 Ry

     iteration #  4     ecut=    15.00 Ry     beta= 0.70
     Davidson diagonalization with overlap

---- Real-time Memory Report at c_bands before calling an iterative solver
           208 MiB given to the printing process from OS
             0 MiB allocation reported by mallinfo(arena+hblkhd)
           399 MiB available memory on the node where the printing process lives
------------------
     ethr =  7.13E-09,  avg # of iterations =  3.0

     negative rho (up, down):  1.796E-01 0.000E+00

     total cpu time spent up to now is       12.0 secs

     total energy              =      -2.29815897 Ry
     estimated scf accuracy    <       0.00000002 Ry

     iteration #  5     ecut=    15.00 Ry     beta= 0.70
     Davidson diagonalization with overlap

---- Real-time Memory Report at c_bands before calling an iterative solver
           208 MiB given to the printing process from OS
             0 MiB allocation reported by mallinfo(arena+hblkhd)
           392 MiB available memory on the node where the printing process lives
------------------
     ethr =  1.23E-09,  avg # of iterations =  2.0

     negative rho (up, down):  1.795E-01 0.000E+00

     total cpu time spent up to now is       12.3 secs

     total energy              =      -2.29817043 Ry
     estimated scf accuracy    <       0.00000001 Ry

     iteration #  6     ecut=    15.00 Ry     beta= 0.70
     Davidson diagonalization with overlap

---- Real-time Memory Report at c_bands before calling an iterative solver
           208 MiB given to the printing process from OS
             0 MiB allocation reported by mallinfo(arena+hblkhd)
           386 MiB available memory on the node where the printing process lives
------------------
     ethr =  5.10E-10,  avg # of iterations =  3.0

     negative rho (up, down):  1.795E-01 0.000E+00

     total cpu time spent up to now is       12.7 secs

     total energy              =      -2.29817403 Ry
     estimated scf accuracy    <          8.7E-09 Ry

     iteration #  7     ecut=    15.00 Ry     beta= 0.70
     Davidson diagonalization with overlap

---- Real-time Memory Report at c_bands before calling an iterative solver
           208 MiB given to the printing process from OS
             0 MiB allocation reported by mallinfo(arena+hblkhd)
           379 MiB available memory on the node where the printing process lives
------------------
     ethr =  4.33E-10,  avg # of iterations =  3.0

     negative rho (up, down):  1.795E-01 0.000E+00

     total cpu time spent up to now is       13.1 secs

     total energy              =      -2.29817438 Ry
     estimated scf accuracy    <          6.4E-09 Ry

     iteration #  8     ecut=    15.00 Ry     beta= 0.70
     Davidson diagonalization with overlap

---- Real-time Memory Report at c_bands before calling an iterative solver
           208 MiB given to the printing process from OS
             0 MiB allocation reported by mallinfo(arena+hblkhd)
           373 MiB available memory on the node where the printing process lives
------------------
     ethr =  3.19E-10,  avg # of iterations =  2.0

     negative rho (up, down):  1.795E-01 0.000E+00

     total cpu time spent up to now is       13.5 secs

     total energy              =      -2.29817569 Ry
     estimated scf accuracy    <          6.7E-09 Ry

     iteration #  9     ecut=    15.00 Ry     beta= 0.70
     Davidson diagonalization with overlap

---- Real-time Memory Report at c_bands before calling an iterative solver
           208 MiB given to the printing process from OS
             0 MiB allocation reported by mallinfo(arena+hblkhd)
           366 MiB available memory on the node where the printing process lives
------------------
     ethr =  3.19E-10,  avg # of iterations =  4.0

     negative rho (up, down):  1.796E-01 0.000E+00

     total cpu time spent up to now is       13.9 secs

     total energy              =      -2.29816309 Ry
     estimated scf accuracy    <       0.00000002 Ry

     iteration # 10     ecut=    15.00 Ry     beta= 0.70
     Davidson diagonalization with overlap

---- Real-time Memory Report at c_bands before calling an iterative solver
           208 MiB given to the printing process from OS
             0 MiB allocation reported by mallinfo(arena+hblkhd)
           360 MiB available memory on the node where the printing process lives
------------------
     ethr =  3.19E-10,  avg # of iterations =  4.0

     negative rho (up, down):  1.796E-01 0.000E+00

     total cpu time spent up to now is       14.3 secs

     total energy              =      -2.29816433 Ry
     estimated scf accuracy    <       0.00000002 Ry

     iteration # 11     ecut=    15.00 Ry     beta= 0.70
     Davidson diagonalization with overlap

---- Real-time Memory Report at c_bands before calling an iterative solver
           208 MiB given to the printing process from OS
             0 MiB allocation reported by mallinfo(arena+hblkhd)
           360 MiB available memory on the node where the printing process lives
------------------
     ethr =  3.19E-10,  avg # of iterations =  2.0

     negative rho (up, down):  1.796E-01 0.000E+00

     total cpu time spent up to now is       14.7 secs

     total energy              =      -2.29816611 Ry
     estimated scf accuracy    <          6.8E-09 Ry

     iteration # 12     ecut=    15.00 Ry     beta= 0.70
     Davidson diagonalization with overlap

---- Real-time Memory Report at c_bands before calling an iterative solver
           208 MiB given to the printing process from OS
             0 MiB allocation reported by mallinfo(arena+hblkhd)
           360 MiB available memory on the node where the printing process lives
------------------
     ethr =  3.19E-10,  avg # of iterations =  3.0

     negative rho (up, down):  1.796E-01 0.000E+00

     total cpu time spent up to now is       15.1 secs

     End of self-consistent calculation

          k =-0.5000-0.5000-0.5000 ( 26344 PWs)   bands (ev):

   -10.7500  -1.4389

     occupation numbers 
     1.0000   0.0000

     highest occupied, lowest unoccupied level (ev):   -10.7500   -1.4389

!    total energy              =      -2.29816961 Ry
     estimated scf accuracy    <          2.1E-10 Ry

     The total energy is the sum of the following terms:
     one-electron contribution =      -4.24928726 Ry
     hartree contribution      =       2.28353755 Ry
     xc contribution           =      -1.40141936 Ry
     ewald contribution        =       1.06899945 Ry

     convergence has been achieved in  12 iterations

     Forces acting on atoms (cartesian axes, Ry/au):

     atom    1 type  1   force =     0.02025624    0.00000000    0.00000000
     atom    2 type  1   force =    -0.02025624    0.00000000    0.00000000
     The non-local contrib.  to forces
     atom    1 type  1   force =     0.14209918    0.00000000    0.00000000
     atom    2 type  1   force =    -0.14319861    0.00000000    0.00000000
     The ionic contribution  to forces
     atom    1 type  1   force =    -1.04648523   -0.00000000   -0.00000000
     atom    2 type  1   force =     1.04648523    0.00000000   -0.00000000
     The local contribution  to forces
     atom    1 type  1   force =     0.92409418    0.00000000    0.00000000
     atom    2 type  1   force =    -0.92412736    0.00000000    0.00000000
     The core correction contribution to forces
     atom    1 type  1   force =     0.00000000    0.00000000    0.00000000
     atom    2 type  1   force =     0.00000000    0.00000000    0.00000000
     The Hubbard contrib.    to forces
     atom    1 type  1   force =     0.00000000    0.00000000    0.00000000
     atom    2 type  1   force =     0.00000000    0.00000000    0.00000000
     The SCF correction term to forces
     atom    1 type  1   force =     0.00002426    0.00000000   -0.00000000
     atom    2 type  1   force =     0.00006065    0.00000000   -0.00000000

     Total force =     0.028647     Total SCF correction =     0.000065
     Energy error            =      3.6E-04 Ry
     Gradient error          =      2.0E-02 Ry/Bohr

     number of scf cycles    =   4
     number of bfgs steps    =   2

     energy             old  =      -2.2985287633 Ry
     energy             new  =      -2.2981696131 Ry

     CASE: energy            _new > energy            _old

     new trust radius        =       0.0008533578 bohr
     new conv_thr            =       0.0000000026 Ry


ATOMIC_POSITIONS (angstrom)
H             0.0624159625        0.0000000000        0.0000000000
H             0.7975840375        0.0000000000        0.0000000000



     Writing config-only to output data dir ./.save/
     NEW-OLD atomic charge density approx. for the potential

     negative rho (up, down):  1.795E-01 0.000E+00

     total cpu time spent up to now is       15.5 secs

     Self-consistent Calculation

     iteration #  1     ecut=    15.00 Ry     beta= 0.70
     Davidson diagonalization with overlap

---- Real-time Memory Report at c_bands before calling an iterative solver
           208 MiB given to the printing process from OS
             0 MiB allocation reported by mallinfo(arena+hblkhd)
           469 MiB available memory on the node where the printing process lives
------------------
     ethr =  1.00E-06,  avg # of iterations =  2.0

     negative rho (up, down):  1.789E-01 0.000E+00

     total cpu time spent up to now is       15.8 secs

     total energy              =      -2.29833086 Ry
     estimated scf accuracy    <       0.00000374 Ry

     iteration #  2     ecut=    15.00 Ry     beta= 0.70
     Davidson diagonalization with overlap

---- Real-time Memory Report at c_bands before calling an iterative solver
           208 MiB given to the printing process from OS
             0 MiB allocation reported by mallinfo(arena+hblkhd)
           412 MiB available memory on the node where the printing process lives
------------------
     ethr =  1.87E-07,  avg # of iterations =  2.0

     negative rho (up, down):  1.787E-01 0.000E+00

     total cpu time spent up to now is       16.2 secs

     total energy              =      -2.29841115 Ry
     estimated scf accuracy    <       0.00000005 Ry

     iteration #  3     ecut=    15.00 Ry     beta= 0.70
     Davidson diagonalization with overlap

---- Real-time Memory Report at c_bands before calling an iterative solver
           208 MiB given to the printing process from OS
             0 MiB allocation reported by mallinfo(arena+hblkhd)
           405 MiB available memory on the node where the printing process lives
------------------
     ethr =  2.66E-09,  avg # of iterations =  3.0

     negative rho (up, down):  1.787E-01 0.000E+00

     total cpu time spent up to now is       16.6 secs

     total energy              =      -2.29844358 Ry
     estimated scf accuracy    <          8.8E-09 Ry

     iteration #  4     ecut=    15.00 Ry     beta= 0.70
     Davidson diagonalization with overlap

---- Real-time Memory Report at c_bands before calling an iterative solver
           208 MiB given to the printing process from OS
             0 MiB allocation reported by mallinfo(arena+hblkhd)
           399 MiB available memory on the node where the printing process lives
------------------
     ethr =  4.42E-10,  avg # of iterations =  4.0

     negative rho (up, down):  1.787E-01 0.000E+00

     total cpu time spent up to now is       17.0 secs

     total energy              =      -2.29843825 Ry
     estimated scf accuracy    <          9.6E-09 Ry

     iteration #  5     ecut=    15.00 Ry     beta= 0.70
     Davidson diagonalization with overlap

---- Real-time Memory Report at c_bands before calling an iterative solver
           208 MiB given to the printing process from OS
             0 MiB allocation reported by mallinfo(arena+hblkhd)
           392 MiB available memory on the node where the printing process lives
------------------
     ethr =  4.42E-10,  avg # of iterations =  4.0

     negative rho (up, down):  1.787E-01 0.000E+00

     total cpu time spent up to now is       17.4 secs

     total energy              =      -2.29844113 Ry
     estimated scf accuracy    <          7.8E-09 Ry

     iteration #  6     ecut=    15.00 Ry     beta= 0.70
     Davidson diagonalization with overlap

---- Real-time Memory Report at c_bands before calling an iterative solver
           208 MiB given to the printing process from OS
             0 MiB allocation reported by mallinfo(arena+hblkhd)
           386 MiB available memory on the node where the printing process lives
------------------
     ethr =  3.92E-10,  avg # of iterations =  2.0

     negative rho (up, down):  1.787E-01 0.000E+00

     total cpu time spent up to now is       17.8 secs

     total energy              =      -2.29845891 Ry
     estimated scf accuracy    <          6.0E-09 Ry

     iteration #  7     ecut=    15.00 Ry     beta= 0.70
     Davidson diagonalization with overlap

---- Real-time Memory Report at c_bands before calling an iterative solver
           208 MiB given to the printing process from OS
             0 MiB allocation reported by mallinfo(arena+hblkhd)
           379 MiB available memory on the node where the printing process lives
------------------
     ethr =  3.01E-10,  avg # of iterations =  4.0

     negative rho (up, down):  1.787E-01 0.000E+00

     total cpu time spent up to now is       18.2 secs

     total energy              =      -2.29845946 Ry
     estimated scf accuracy    <          4.1E-09 Ry

     iteration #  8     ecut=    15.00 Ry     beta= 0.70
     Davidson diagonalization with overlap

---- Real-time Memory Report at c_bands before calling an iterative solver
           208 MiB given to the printing process from OS
             0 MiB allocation reported by mallinfo(arena+hblkhd)
           373 MiB available memory on the node where the printing process lives
------------------
     ethr =  2.03E-10,  avg # of iterations =  1.0

     negative rho (up, down):  1.787E-01 0.000E+00

     total cpu time spent up to now is       18.6 secs

     total energy              =      -2.29843371 Ry
     estimated scf accuracy    <          3.2E-09 Ry

     iteration #  9     ecut=    15.00 Ry     beta= 0.70
     Davidson diagonalization with overlap

---- Real-time Memory Report at c_bands before calling an iterative solver
           208 MiB given to the printing process from OS
             0 MiB allocation reported by mallinfo(arena+hblkhd)
           366 MiB available memory on the node where the printing process lives
------------------
     ethr =  1.59E-10,  avg # of iterations =  4.0

     negative rho (up, down):  1.787E-01 0.000E+00

     total cpu time spent up to now is       19.0 secs

     total energy              =      -2.29843375 Ry
     estimated scf accuracy    <       0.00000001 Ry

     iteration # 10     ecut=    15.00 Ry     beta= 0.70
     Davidson diagonalization with overlap

---- Real-time Memory Report at c_bands before calling an iterative solver
           208 MiB given to the printing process from OS
             0 MiB allocation reported by mallinfo(arena+hblkhd)
           360 MiB available memory on the node where the printing process lives
------------------
     ethr =  1.59E-10,  avg # of iterations =  2.0

     negative rho (up, down):  1.787E-01 0.000E+00

     total cpu time spent up to now is       19.4 secs

     total energy              =      -2.29843439 Ry
     estimated scf accuracy    <       0.00000001 Ry

     iteration # 11     ecut=    15.00 Ry     beta= 0.70
     Davidson diagonalization with overlap

---- Real-time Memory Report at c_bands before calling an iterative solver
           208 MiB given to the printing process from OS
             0 MiB allocation reported by mallinfo(arena+hblkhd)
           360 MiB available memory on the node where the printing process lives
------------------
     ethr =  1.59E-10,  avg # of iterations =  2.0

     negative rho (up, down):  1.787E-01 0.000E+00

     total cpu time spent up to now is       19.7 secs

     total energy              =      -2.29843507 Ry
     estimated scf accuracy    <       0.00000001 Ry

     iteration # 12     ecut=    15.00 Ry     beta= 0.70
     Davidson diagonalization with overlap

---- Real-time Memory Report at c_bands before calling an iterative solver
           208 MiB given to the printing process from OS
             0 MiB allocation reported by mallinfo(arena+hblkhd)
           360 MiB available memory on the node where the printing process lives
------------------
     ethr =  1.59E-10,  avg # of iterations =  2.0

     negative rho (up, down):  1.787E-01 0.000E+00

     total cpu time spent up to now is       20.1 secs

     total energy              =      -2.29843149 Ry
     estimated scf accuracy    <       0.00000001 Ry

     iteration # 13     ecut=    15.00 Ry     beta= 0.70
     Davidson diagonalization with overlap

---- Real-time Memory Report at c_bands before calling an iterative solver
           208 MiB given to the printing process from OS
             0 MiB allocation reported by mallinfo(arena+hblkhd)
           360 MiB available memory on the node where the printing process lives
------------------
     ethr =  1.59E-10,  avg # of iterations =  3.0

     negative rho (up, down):  1.787E-01 0.000E+00

     total cpu time spent up to now is       20.5 secs

     total energy              =      -2.29841650 Ry
     estimated scf accuracy    <       0.00000002 Ry

     iteration # 14     ecut=    15.00 Ry     beta= 0.70
     Davidson diagonalization with overlap

---- Real-time Memory Report at c_bands before calling an iterative solver
           208 MiB given to the printing process from OS
             0 MiB allocation reported by mallinfo(arena+hblkhd)
           360 MiB available memory on the node where the printing process lives
------------------
     ethr =  1.59E-10,  avg # of iterations =  3.0

     negative rho (up, down):  1.787E-01 0.000E+00

     total cpu time spent up to now is       20.9 secs

     total energy              =      -2.29841692 Ry
     estimated scf accuracy    <       0.00000004 Ry

     iteration # 15     ecut=    15.00 Ry     beta= 0.70
     Davidson diagonalization with overlap

---- Real-time Memory Report at c_bands before calling an iterative solver
           208 MiB given to the printing process from OS
             0 MiB allocation reported by mallinfo(arena+hblkhd)
           360 MiB available memory on the node where the printing process lives
------------------
     ethr =  1.59E-10,  avg # of iterations =  2.0

     negative rho (up, down):  1.787E-01 0.000E+00

     total cpu time spent up to now is       21.3 secs

     total energy              =      -2.29843283 Ry
     estimated scf accuracy    <       0.00000003 Ry

     iteration # 16     ecut=    15.00 Ry     beta= 0.70
     Davidson diagonalization with overlap

---- Real-time Memory Report at c_bands before calling an iterative solver
           208 MiB given to the printing process from OS
             0 MiB allocation reported by mallinfo(arena+hblkhd)
           360 MiB available memory on the node where the printing process lives
------------------
     ethr =  1.59E-10,  avg # of iterations =  4.0

     negative rho (up, down):  1.787E-01 0.000E+00

     total cpu time spent up to now is       21.7 secs

     total energy              =      -2.29842998 Ry
     estimated scf accuracy    <          3.6E-09 Ry

     iteration # 17     ecut=    15.00 Ry     beta= 0.70
     Davidson diagonalization with overlap

---- Real-time Memory Report at c_bands before calling an iterative solver
           208 MiB given to the printing process from OS
             0 MiB allocation reported by mallinfo(arena+hblkhd)
           360 MiB available memory on the node where the printing process lives
------------------
     ethr =  1.59E-10,  avg # of iterations =  3.0

     negative rho (up, down):  1.787E-01 0.000E+00

     total cpu time spent up to now is       22.1 secs

     total energy              =      -2.29843855 Ry
     estimated scf accuracy    <          8.5E-09 Ry

     iteration # 18     ecut=    15.00 Ry     beta= 0.70
     Davidson diagonalization with overlap

---- Real-time Memory Report at c_bands before calling an iterative solver
           208 MiB given to the printing process from OS
             0 MiB allocation reported by mallinfo(arena+hblkhd)
           360 MiB available memory on the node where the printing process lives
------------------
     ethr =  1.59E-10,  avg # of iterations =  4.0

     negative rho (up, down):  1.787E-01 0.000E+00

     total cpu time spent up to now is       22.5 secs

     total energy              =      -2.29846609 Ry
     estimated scf accuracy    <          4.0E-09 Ry

     iteration # 19     ecut=    15.00 Ry     beta= 0.70
     Davidson diagonalization with overlap

---- Real-time Memory Report at c_bands before calling an iterative solver
           208 MiB given to the printing process from OS
             0 MiB allocation reported by mallinfo(arena+hblkhd)
           360 MiB available memory on the node where the printing process lives
------------------
     ethr =  1.59E-10,  avg # of iterations =  4.0

     negative rho (up, down):  1.787E-01 0.000E+00

     total cpu time spent up to now is       22.9 secs

     total energy              =      -2.29844564 Ry
     estimated scf accuracy    <       0.00000002 Ry

     iteration # 20     ecut=    15.00 Ry     beta= 0.70
     Davidson diagonalization with overlap

---- Real-time Memory Report at c_bands before calling an iterative solver
           208 MiB given to the printing process from OS
             0 MiB allocation reported by mallinfo(arena+hblkhd)
           360 MiB available memory on the node where the printing process lives
------------------
     ethr =  1.59E-10,  avg # of iterations =  4.0

     negative rho (up, down):  1.787E-01 0.000E+00

     total cpu time spent up to now is       23.4 secs

     total energy              =      -2.29842806 Ry
     estimated scf accuracy    <          3.4E-09 Ry

     iteration # 21     ecut=    15.00 Ry     beta= 0.70
     Davidson diagonalization with overlap

---- Real-time Memory Report at c_bands before calling an iterative solver
           208 MiB given to the printing process from OS
             0 MiB allocation reported by mallinfo(arena+hblkhd)
           360 MiB available memory on the node where the printing process lives
------------------
     ethr =  1.59E-10,  avg # of iterations =  4.0

     negative rho (up, down):  1.787E-01 0.000E+00

     total cpu time spent up to now is       23.8 secs

     total energy              =      -2.29843143 Ry
     estimated scf accuracy    <       0.00000001 Ry

     iteration # 22     ecut=    15.00 Ry     beta= 0.70
     Davidson diagonalization with overlap

---- Real-time Memory Report at c_bands before calling an iterative solver
           208 MiB given to the printing process from OS
             0 MiB allocation reported by mallinfo(arena+hblkhd)
           360 MiB available memory on the node where the printing process lives
------------------
     ethr =  1.59E-10,  avg # of iterations =  3.0

     negative rho (up, down):  1.787E-01 0.000E+00

     total cpu time spent up to now is       24.2 secs

     total energy              =      -2.29845363 Ry
     estimated scf accuracy    <       0.00000001 Ry

     iteration # 23     ecut=    15.00 Ry     beta= 0.70
     Davidson diagonalization with overlap

---- Real-time Memory Report at c_bands before calling an iterative solver
           208 MiB given to the printing process from OS
             0 MiB allocation reported by mallinfo(arena+hblkhd)
           360 MiB available memory on the node where the printing process lives
------------------
     ethr =  1.59E-10,  avg # of iterations =  4.0

     negative rho (up, down):  1.787E-01 0.000E+00

     total cpu time spent up to now is       24.6 secs

     total energy              =      -2.29844477 Ry
     estimated scf accuracy    <          2.6E-09 Ry

     iteration # 24     ecut=    15.00 Ry     beta= 0.70
     Davidson diagonalization with overlap

---- Real-time Memory Report at c_bands before calling an iterative solver
           208 MiB given to the printing process from OS
             0 MiB allocation reported by mallinfo(arena+hblkhd)
           360 MiB available memory on the node where the printing process lives
------------------
     ethr =  1.32E-10,  avg # of iterations =  4.0

     negative rho (up, down):  1.787E-01 0.000E+00

     total cpu time spent up to now is       25.0 secs

     total energy              =      -2.29844564 Ry
     estimated scf accuracy    <          4.4E-09 Ry

     iteration # 25     ecut=    15.00 Ry     beta= 0.70
     Davidson diagonalization with overlap

---- Real-time Memory Report at c_bands before calling an iterative solver
           208 MiB given to the printing process from OS
             0 MiB allocation reported by mallinfo(arena+hblkhd)
           360 MiB available memory on the node where the printing process lives
------------------
     ethr =  1.32E-10,  avg # of iterations =  1.0

     negative rho (up, down):  1.787E-01 0.000E+00

     total cpu time spent up to now is       25.4 secs

     total energy              =      -2.29844571 Ry
     estimated scf accuracy    <          4.4E-09 Ry

     iteration # 26     ecut=    15.00 Ry     beta= 0.70
     Davidson diagonalization with overlap

---- Real-time Memory Report at c_bands before calling an iterative solver
           208 MiB given to the printing process from OS
             0 MiB allocation reported by mallinfo(arena+hblkhd)
           360 MiB available memory on the node where the printing process lives
------------------
     ethr =  1.32E-10,  avg # of iterations =  1.0

     negative rho (up, down):  1.787E-01 0.000E+00

     total cpu time spent up to now is       25.7 secs

     total energy              =      -2.29843635 Ry
     estimated scf accuracy    <          4.3E-09 Ry

     iteration # 27     ecut=    15.00 Ry     beta= 0.70
     Davidson diagonalization with overlap

---- Real-time Memory Report at c_bands before calling an iterative solver
           208 MiB given to the printing process from OS
             0 MiB allocation reported by mallinfo(arena+hblkhd)
           360 MiB available memory on the node where the printing process lives
------------------
     ethr =  1.32E-10,  avg # of iterations =  4.0

     negative rho (up, down):  1.787E-01 0.000E+00

     total cpu time spent up to now is       26.2 secs

     total energy              =      -2.29844471 Ry
     estimated scf accuracy    <          5.1E-09 Ry

     iteration # 28     ecut=    15.00 Ry     beta= 0.70
     Davidson diagonalization with overlap

---- Real-time Memory Report at c_bands before calling an iterative solver
           208 MiB given to the printing process from OS
             0 MiB allocation reported by mallinfo(arena+hblkhd)
           360 MiB available memory on the node where the printing process lives
------------------
     ethr =  1.32E-10,  avg # of iterations =  4.0

     negative rho (up, down):  1.787E-01 0.000E+00

     total cpu time spent up to now is       26.6 secs

     total energy              =      -2.29845364 Ry
     estimated scf accuracy    <          4.6E-09 Ry

     iteration # 29     ecut=    15.00 Ry     beta= 0.70
     Davidson diagonalization with overlap

---- Real-time Memory Report at c_bands before calling an iterative solver
           208 MiB given to the printing process from OS
             0 MiB allocation reported by mallinfo(arena+hblkhd)
           360 MiB available memory on the node where the printing process lives
------------------
     ethr =  1.32E-10,  avg # of iterations =  3.0

     negative rho (up, down):  1.787E-01 0.000E+00

     total cpu time spent up to now is       27.0 secs

     total energy              =      -2.29842758 Ry
     estimated scf accuracy    <          2.9E-09 Ry

     iteration # 30     ecut=    15.00 Ry     beta= 0.70
     Davidson diagonalization with overlap

---- Real-time Memory Report at c_bands before calling an iterative solver
           208 MiB given to the printing process from OS
             0 MiB allocation reported by mallinfo(arena+hblkhd)
           360 MiB available memory on the node where the printing process lives
------------------
     ethr =  1.32E-10,  avg # of iterations =  4.0

     negative rho (up, down):  1.787E-01 0.000E+00

     total cpu time spent up to now is       27.4 secs

     total energy              =      -2.29842828 Ry
     estimated scf accuracy    <          5.7E-09 Ry

     iteration # 31     ecut=    15.00 Ry     beta= 0.70
     Davidson diagonalization with overlap

---- Real-time Memory Report at c_bands before calling an iterative solver
           208 MiB given to the printing process from OS
             0 MiB allocation reported by mallinfo(arena+hblkhd)
           360 MiB available memory on the node where the printing process lives
------------------
     ethr =  1.32E-10,  avg # of iterations =  2.0

     negative rho (up, down):  1.787E-01 0.000E+00

     total cpu time spent up to now is       27.8 secs

     total energy              =      -2.29843653 Ry
     estimated scf accuracy    <          6.9E-09 Ry

     iteration # 32     ecut=    15.00 Ry     beta= 0.70
     Davidson diagonalization with overlap

---- Real-time Memory Report at c_bands before calling an iterative solver
           208 MiB given to the printing process from OS
             0 MiB allocation reported by mallinfo(arena+hblkhd)
           360 MiB available memory on the node where the printing process lives
------------------
     ethr =  1.32E-10,  avg # of iterations =  3.0

     negative rho (up, down):  1.787E-01 0.000E+00

     total cpu time spent up to now is       28.2 secs

     total energy              =      -2.29842757 Ry
     estimated scf accuracy    <          7.6E-09 Ry

     iteration # 33     ecut=    15.00 Ry     beta= 0.70
     Davidson diagonalization with overlap

---- Real-time Memory Report at c_bands before calling an iterative solver
           208 MiB given to the printing process from OS
             0 MiB allocation reported by mallinfo(arena+hblkhd)
           360 MiB available memory on the node where the printing process lives
------------------
     ethr =  1.32E-10,  avg # of iterations =  3.0

     negative rho (up, down):  1.787E-01 0.000E+00

     total cpu time spent up to now is       28.6 secs

     total energy              =      -2.29843995 Ry
     estimated scf accuracy    <          4.8E-09 Ry

     iteration # 34     ecut=    15.00 Ry     beta= 0.70
     Davidson diagonalization with overlap

---- Real-time Memory Report at c_bands before calling an iterative solver
           208 MiB given to the printing process from OS
             0 MiB allocation reported by mallinfo(arena+hblkhd)
           360 MiB available memory on the node where the printing process lives
------------------
     ethr =  1.32E-10,  avg # of iterations =  3.0

     negative rho (up, down):  1.787E-01 0.000E+00

     total cpu time spent up to now is       29.0 secs

     total energy              =      -2.29843647 Ry
     estimated scf accuracy    <          5.0E-09 Ry

     iteration # 35     ecut=    15.00 Ry     beta= 0.70
     Davidson diagonalization with overlap

---- Real-time Memory Report at c_bands before calling an iterative solver
           208 MiB given to the printing process from OS
             0 MiB allocation reported by mallinfo(arena+hblkhd)
           360 MiB available memory on the node where the printing process lives
------------------
     ethr =  1.32E-10,  avg # of iterations =  2.0

     negative rho (up, down):  1.787E-01 0.000E+00

     total cpu time spent up to now is       29.4 secs

     total energy              =      -2.29844003 Ry
     estimated scf accuracy    <          5.2E-09 Ry

     iteration # 36     ecut=    15.00 Ry     beta= 0.70
     Davidson diagonalization with overlap

---- Real-time Memory Report at c_bands before calling an iterative solver
           208 MiB given to the printing process from OS
             0 MiB allocation reported by mallinfo(arena+hblkhd)
           360 MiB available memory on the node where the printing process lives
------------------
     ethr =  1.32E-10,  avg # of iterations =  2.0

     negative rho (up, down):  1.787E-01 0.000E+00

     total cpu time spent up to now is       29.7 secs

     total energy              =      -2.29842005 Ry
     estimated scf accuracy    <          5.3E-09 Ry

     iteration # 37     ecut=    15.00 Ry     beta= 0.70
     Davidson diagonalization with overlap

---- Real-time Memory Report at c_bands before calling an iterative solver
           208 MiB given to the printing process from OS
             0 MiB allocation reported by mallinfo(arena+hblkhd)
           360 MiB available memory on the node where the printing process lives
------------------
     ethr =  1.32E-10,  avg # of iterations =  4.0

     negative rho (up, down):  1.787E-01 0.000E+00

     total cpu time spent up to now is       30.1 secs

     total energy              =      -2.29842934 Ry
     estimated scf accuracy    <       0.00000016 Ry

     iteration # 38     ecut=    15.00 Ry     beta= 0.70
     Davidson diagonalization with overlap

---- Real-time Memory Report at c_bands before calling an iterative solver
           208 MiB given to the printing process from OS
             0 MiB allocation reported by mallinfo(arena+hblkhd)
           360 MiB available memory on the node where the printing process lives
------------------
     ethr =  1.32E-10,  avg # of iterations =  4.0

     negative rho (up, down):  1.787E-01 0.000E+00

     total cpu time spent up to now is       30.6 secs

     total energy              =      -2.29843992 Ry
     estimated scf accuracy    <       0.00000003 Ry

     iteration # 39     ecut=    15.00 Ry     beta= 0.70
     Davidson diagonalization with overlap

---- Real-time Memory Report at c_bands before calling an iterative solver
           208 MiB given to the printing process from OS
             0 MiB allocation reported by mallinfo(arena+hblkhd)
           360 MiB available memory on the node where the printing process lives
------------------
     ethr =  1.32E-10,  avg # of iterations =  4.0

     negative rho (up, down):  1.787E-01 0.000E+00

     total cpu time spent up to now is       31.0 secs

     total energy              =      -2.29843702 Ry
     estimated scf accuracy    <       0.00000001 Ry

     iteration # 40     ecut=    15.00 Ry     beta= 0.70
     Davidson diagonalization with overlap

---- Real-time Memory Report at c_bands before calling an iterative solver
           208 MiB given to the printing process from OS
             0 MiB allocation reported by mallinfo(arena+hblkhd)
           360 MiB available memory on the node where the printing process lives
------------------
     ethr =  1.32E-10,  avg # of iterations =  2.0

     negative rho (up, down):  1.787E-01 0.000E+00

     total cpu time spent up to now is       31.4 secs

     total energy              =      -2.29844345 Ry
     estimated scf accuracy    <       0.00000001 Ry

     iteration # 41     ecut=    15.00 Ry     beta= 0.70
     Davidson diagonalization with overlap

---- Real-time Memory Report at c_bands before calling an iterative solver
           208 MiB given to the printing process from OS
             0 MiB allocation reported by mallinfo(arena+hblkhd)
           360 MiB available memory on the node where the printing process lives
------------------
     ethr =  1.32E-10,  avg # of iterations =  4.0

     negative rho (up, down):  1.787E-01 0.000E+00

     total cpu time spent up to now is       31.8 secs

     total energy              =      -2.29842635 Ry
     estimated scf accuracy    <       0.00000003 Ry

     iteration # 42     ecut=    15.00 Ry     beta= 0.70
     Davidson diagonalization with overlap

---- Real-time Memory Report at c_bands before calling an iterative solver
           208 MiB given to the printing process from OS
             0 MiB allocation reported by mallinfo(arena+hblkhd)
           360 MiB available memory on the node where the printing process lives
------------------
     ethr =  1.32E-10,  avg # of iterations =  4.0

     negative rho (up, down):  1.787E-01 0.000E+00

     total cpu time spent up to now is       32.2 secs

     total energy              =      -2.29842851 Ry
     estimated scf accuracy    <       0.00000004 Ry

     iteration # 43     ecut=    15.00 Ry     beta= 0.70
     Davidson diagonalization with overlap

---- Real-time Memory Report at c_bands before calling an iterative solver
           208 MiB given to the printing process from OS
             0 MiB allocation reported by mallinfo(arena+hblkhd)
           360 MiB available memory on the node where the printing process lives
------------------
     ethr =  1.32E-10,  avg # of iterations =  2.0

     negative rho (up, down):  1.787E-01 0.000E+00

     total cpu time spent up to now is       32.6 secs

     total energy              =      -2.29843676 Ry
     estimated scf accuracy    <       0.00000003 Ry

     iteration # 44     ecut=    15.00 Ry     beta= 0.70
     Davidson diagonalization with overlap

---- Real-time Memory Report at c_bands before calling an iterative solver
           208 MiB given to the printing process from OS
             0 MiB allocation reported by mallinfo(arena+hblkhd)
           360 MiB available memory on the node where the printing process lives
------------------
     ethr =  1.32E-10,  avg # of iterations =  4.0

     negative rho (up, down):  1.787E-01 0.000E+00

     total cpu time spent up to now is       32.9 secs

     End of self-consistent calculation

          k =-0.5000-0.5000-0.5000 ( 26344 PWs)   bands (ev):

   -10.7292  -1.4472

     occupation numbers 
     1.0000   0.0000

     highest occupied, lowest unoccupied level (ev):   -10.7292   -1.4472

!    total energy              =      -2.29844094 Ry
     estimated scf accuracy    <          3.7E-10 Ry

     The total energy is the sum of the following terms:
     one-electron contribution =      -4.23951424 Ry
     hartree contribution      =       2.27846484 Ry
     xc contribution           =      -1.39899437 Ry
     ewald contribution        =       1.06160283 Ry

     convergence has been achieved in  44 iterations

     Forces acting on atoms (cartesian axes, Ry/au):

     atom    1 type  1   force =     0.02353627    0.00000000    0.00000000
     atom    2 type  1   force =    -0.02353627    0.00000000    0.00000000
     The non-local contrib.  to forces
     atom    1 type  1   force =     0.13796736    0.00000000    0.00000000
     atom    2 type  1   force =    -0.14011715    0.00000000    0.00000000
     The ionic contribution  to forces
     atom    1 type  1   force =    -1.03580294    0.00000000   -0.00000000
     atom    2 type  1   force =     1.03580294   -0.00000000   -0.00000000
     The local contribution  to forces
     atom    1 type  1   force =     0.92049205    0.00000000    0.00000000
     atom    2 type  1   force =    -0.92040731    0.00000000    0.00000000
     The core correction contribution to forces
     atom    1 type  1   force =     0.00000000    0.00000000    0.00000000
     atom    2 type  1   force =     0.00000000    0.00000000    0.00000000
     The Hubbard contrib.    to forces
     atom    1 type  1   force =     0.00000000    0.00000000    0.00000000
     atom    2 type  1   force =     0.00000000    0.00000000    0.00000000
     The SCF correction term to forces
     atom    1 type  1   force =    -0.00062444    0.00000000   -0.00000000
     atom    2 type  1   force =    -0.00031898    0.00000000   -0.00000000

     Total force =     0.033285     Total SCF correction =     0.000701
     Energy error            =      8.8E-05 Ry
     Gradient error          =      2.4E-02 Ry/Bohr

     number of scf cycles    =   5
     number of bfgs steps    =   2

     energy             old  =      -2.2985287633 Ry
     energy             new  =      -2.2984409367 Ry

     CASE: energy            _new > energy            _old

     new trust radius        =       0.0001423991 bohr
     new conv_thr            =       0.0000000026 Ry


ATOMIC_POSITIONS (angstrom)
H             0.0620397393        0.0000000000        0.0000000000
H             0.7979602607        0.0000000000        0.0000000000



     Writing config-only to output data dir ./.save/
     NEW-OLD atomic charge density approx. for the potential

     negative rho (up, down):  1.787E-01 0.000E+00

     total cpu time spent up to now is       33.3 secs

     Self-consistent Calculation

     iteration #  1     ecut=    15.00 Ry     beta= 0.70
     Davidson diagonalization with overlap

---- Real-time Memory Report at c_bands before calling an iterative solver
           208 MiB given to the printing process from OS
             0 MiB allocation reported by mallinfo(arena+hblkhd)
           469 MiB available memory on the node where the printing process lives
------------------
     ethr =  1.00E-06,  avg # of iterations =  2.0

     Threshold (ethr) on eigenvalues was too large:
     Diagonalizing with lowered threshold

     Davidson diagonalization with overlap

---- Real-time Memory Report at c_bands before calling an iterative solver
           208 MiB given to the printing process from OS
             0 MiB allocation reported by mallinfo(arena+hblkhd)
           457 MiB available memory on the node where the printing process lives
------------------
     ethr =  1.05E-08,  avg # of iterations =  1.0

     negative rho (up, down):  1.786E-01 0.000E+00

     total cpu time spent up to now is       33.8 secs

     total energy              =      -2.29851381 Ry
     estimated scf accuracy    <       0.00000024 Ry

     iteration #  2     ecut=    15.00 Ry     beta= 0.70
     Davidson diagonalization with overlap

---- Real-time Memory Report at c_bands before calling an iterative solver
           208 MiB given to the printing process from OS
             0 MiB allocation reported by mallinfo(arena+hblkhd)
           412 MiB available memory on the node where the printing process lives
------------------
     ethr =  1.21E-08,  avg # of iterations =  3.0

     negative rho (up, down):  1.786E-01 0.000E+00

     total cpu time spent up to now is       34.2 secs

     total energy              =      -2.29848579 Ry
     estimated scf accuracy    <       0.00000003 Ry

     iteration #  3     ecut=    15.00 Ry     beta= 0.70
     Davidson diagonalization with overlap

---- Real-time Memory Report at c_bands before calling an iterative solver
           208 MiB given to the printing process from OS
             0 MiB allocation reported by mallinfo(arena+hblkhd)
           405 MiB available memory on the node where the printing process lives
------------------
     ethr =  1.59E-09,  avg # of iterations =  4.0

     negative rho (up, down):  1.786E-01 0.000E+00

     total cpu time spent up to now is       34.6 secs

     total energy              =      -2.29850165 Ry
     estimated scf accuracy    <       0.00000005 Ry

     iteration #  4     ecut=    15.00 Ry     beta= 0.70
     Davidson diagonalization with overlap

---- Real-time Memory Report at c_bands before calling an iterative solver
           208 MiB given to the printing process from OS
             0 MiB allocation reported by mallinfo(arena+hblkhd)
           399 MiB available memory on the node where the printing process lives
------------------
     ethr =  1.59E-09,  avg # of iterations =  3.0

[...]
------------------
     ethr =  2.45E-10,  avg # of iterations =  4.0

     negative rho (up, down):  1.853E-01 0.000E+00

     total cpu time spent up to now is       68.2 secs

     total energy              =      -2.29531799 Ry
     estimated scf accuracy    <       0.00000046 Ry

     iteration # 77     ecut=    15.00 Ry     beta= 0.70
     Davidson diagonalization with overlap

---- Real-time Memory Report at c_bands before calling an iterative solver
           208 MiB given to the printing process from OS
             0 MiB allocation reported by mallinfo(arena+hblkhd)
           360 MiB available memory on the node where the printing process lives
------------------
     ethr =  2.45E-10,  avg # of iterations =  5.0

     negative rho (up, down):  1.853E-01 0.000E+00

     total cpu time spent up to now is       68.6 secs

     total energy              =      -2.29537121 Ry
     estimated scf accuracy    <       0.00000024 Ry

     iteration # 78     ecut=    15.00 Ry     beta= 0.70
     Davidson diagonalization with overlap

---- Real-time Memory Report at c_bands before calling an iterative solver
           208 MiB given to the printing process from OS
             0 MiB allocation reported by mallinfo(arena+hblkhd)
           360 MiB available memory on the node where the printing process lives
------------------
     ethr =  2.45E-10,  avg # of iterations =  5.0

     negative rho (up, down):  1.853E-01 0.000E+00

     total cpu time spent up to now is       69.0 secs

     total energy              =      -2.29535271 Ry
     estimated scf accuracy    <       0.00000001 Ry

     iteration # 79     ecut=    15.00 Ry     beta= 0.70
     Davidson diagonalization with overlap

---- Real-time Memory Report at c_bands before calling an iterative solver
           208 MiB given to the printing process from OS
             0 MiB allocation reported by mallinfo(arena+hblkhd)
           360 MiB available memory on the node where the printing process lives
------------------
     ethr =  2.45E-10,  avg # of iterations =  4.0

     negative rho (up, down):  1.853E-01 0.000E+00

     total cpu time spent up to now is       69.4 secs

     total energy              =      -2.29535630 Ry
     estimated scf accuracy    <       0.00000001 Ry

     iteration # 80     ecut=    15.00 Ry     beta= 0.70
     Davidson diagonalization with overlap

---- Real-time Memory Report at c_bands before calling an iterative solver
           208 MiB given to the printing process from OS
             0 MiB allocation reported by mallinfo(arena+hblkhd)
           360 MiB available memory on the node where the printing process lives
------------------
     ethr =  2.45E-10,  avg # of iterations =  3.0

     negative rho (up, down):  1.853E-01 0.000E+00

     total cpu time spent up to now is       69.8 secs

     total energy              =      -2.29539130 Ry
     estimated scf accuracy    <       0.00000001 Ry

     iteration # 81     ecut=    15.00 Ry     beta= 0.70
     Davidson diagonalization with overlap

---- Real-time Memory Report at c_bands before calling an iterative solver
           208 MiB given to the printing process from OS
             0 MiB allocation reported by mallinfo(arena+hblkhd)
           360 MiB available memory on the node where the printing process lives
------------------
     ethr =  2.45E-10,  avg # of iterations =  4.0

     negative rho (up, down):  1.854E-01 0.000E+00

     total cpu time spent up to now is       70.2 secs

     total energy              =      -2.29532681 Ry
     estimated scf accuracy    <       0.00000019 Ry

     iteration # 82     ecut=    15.00 Ry     beta= 0.70
     Davidson diagonalization with overlap

---- Real-time Memory Report at c_bands before calling an iterative solver
           208 MiB given to the printing process from OS
             0 MiB allocation reported by mallinfo(arena+hblkhd)
           360 MiB available memory on the node where the printing process lives
------------------
     ethr =  2.45E-10,  avg # of iterations =  4.0

     negative rho (up, down):  1.854E-01 0.000E+00

     total cpu time spent up to now is       70.7 secs

     total energy              =      -2.29534455 Ry
     estimated scf accuracy    <       0.00000003 Ry

     iteration # 83     ecut=    15.00 Ry     beta= 0.70
     Davidson diagonalization with overlap

---- Real-time Memory Report at c_bands before calling an iterative solver
           208 MiB given to the printing process from OS
             0 MiB allocation reported by mallinfo(arena+hblkhd)
           360 MiB available memory on the node where the printing process lives
------------------
     ethr =  2.45E-10,  avg # of iterations =  4.0

     negative rho (up, down):  1.854E-01 0.000E+00

     total cpu time spent up to now is       71.1 secs

     total energy              =      -2.29530128 Ry
     estimated scf accuracy    <       0.00000002 Ry

     iteration # 84     ecut=    15.00 Ry     beta= 0.70
     Davidson diagonalization with overlap

---- Real-time Memory Report at c_bands before calling an iterative solver
           208 MiB given to the printing process from OS
             0 MiB allocation reported by mallinfo(arena+hblkhd)
           360 MiB available memory on the node where the printing process lives
------------------
     ethr =  2.45E-10,  avg # of iterations =  4.0

     negative rho (up, down):  1.854E-01 0.000E+00

     total cpu time spent up to now is       71.5 secs

     total energy              =      -2.29531947 Ry
     estimated scf accuracy    <       0.00000003 Ry

     iteration # 85     ecut=    15.00 Ry     beta= 0.70
     Davidson diagonalization with overlap

---- Real-time Memory Report at c_bands before calling an iterative solver
           208 MiB given to the printing process from OS
             0 MiB allocation reported by mallinfo(arena+hblkhd)
           360 MiB available memory on the node where the printing process lives
------------------
     ethr =  2.45E-10,  avg # of iterations =  4.0

     negative rho (up, down):  1.854E-01 0.000E+00

     total cpu time spent up to now is       71.9 secs

     total energy              =      -2.29535088 Ry
     estimated scf accuracy    <       0.00000036 Ry

     iteration # 86     ecut=    15.00 Ry     beta= 0.70
     Davidson diagonalization with overlap

---- Real-time Memory Report at c_bands before calling an iterative solver
           208 MiB given to the printing process from OS
             0 MiB allocation reported by mallinfo(arena+hblkhd)
           360 MiB available memory on the node where the printing process lives
------------------
     ethr =  2.45E-10,  avg # of iterations =  4.0

     negative rho (up, down):  1.854E-01 0.000E+00

     total cpu time spent up to now is       72.3 secs

     total energy              =      -2.29531775 Ry
     estimated scf accuracy    <       0.00000011 Ry

     iteration # 87     ecut=    15.00 Ry     beta= 0.70
     Davidson diagonalization with overlap

---- Real-time Memory Report at c_bands before calling an iterative solver
           208 MiB given to the printing process from OS
             0 MiB allocation reported by mallinfo(arena+hblkhd)
           360 MiB available memory on the node where the printing process lives
------------------
     ethr =  2.45E-10,  avg # of iterations =  4.0

     negative rho (up, down):  1.854E-01 0.000E+00

     total cpu time spent up to now is       72.7 secs

     total energy              =      -2.29533078 Ry
     estimated scf accuracy    <       0.00000018 Ry

     iteration # 88     ecut=    15.00 Ry     beta= 0.70
     Davidson diagonalization with overlap

---- Real-time Memory Report at c_bands before calling an iterative solver
           208 MiB given to the printing process from OS
             0 MiB allocation reported by mallinfo(arena+hblkhd)
           360 MiB available memory on the node where the printing process lives
------------------
     ethr =  2.45E-10,  avg # of iterations =  4.0

     negative rho (up, down):  1.854E-01 0.000E+00

     total cpu time spent up to now is       73.1 secs

     total energy              =      -2.29529902 Ry
     estimated scf accuracy    <       0.00000013 Ry

     iteration # 89     ecut=    15.00 Ry     beta= 0.70
     Davidson diagonalization with overlap

---- Real-time Memory Report at c_bands before calling an iterative solver
           208 MiB given to the printing process from OS
             0 MiB allocation reported by mallinfo(arena+hblkhd)
           360 MiB available memory on the node where the printing process lives
------------------
     ethr =  2.45E-10,  avg # of iterations =  5.0

     negative rho (up, down):  1.854E-01 0.000E+00

     total cpu time spent up to now is       73.5 secs

     total energy              =      -2.29529628 Ry
     estimated scf accuracy    <       0.00000050 Ry

     iteration # 90     ecut=    15.00 Ry     beta= 0.70
     Davidson diagonalization with overlap

---- Real-time Memory Report at c_bands before calling an iterative solver
           208 MiB given to the printing process from OS
             0 MiB allocation reported by mallinfo(arena+hblkhd)
           360 MiB available memory on the node where the printing process lives
------------------
     ethr =  2.45E-10,  avg # of iterations =  4.0

     negative rho (up, down):  1.854E-01 0.000E+00

     total cpu time spent up to now is       73.9 secs

     total energy              =      -2.29531332 Ry
     estimated scf accuracy    <       0.00000023 Ry

     iteration # 91     ecut=    15.00 Ry     beta= 0.70
     Davidson diagonalization with overlap

---- Real-time Memory Report at c_bands before calling an iterative solver
           208 MiB given to the printing process from OS
             0 MiB allocation reported by mallinfo(arena+hblkhd)
           360 MiB available memory on the node where the printing process lives
------------------
     ethr =  2.45E-10,  avg # of iterations =  3.0

     negative rho (up, down):  1.854E-01 0.000E+00

     total cpu time spent up to now is       74.3 secs

     total energy              =      -2.29531466 Ry
     estimated scf accuracy    <       0.00000020 Ry

     iteration # 92     ecut=    15.00 Ry     beta= 0.70
     Davidson diagonalization with overlap

---- Real-time Memory Report at c_bands before calling an iterative solver
           208 MiB given to the printing process from OS
             0 MiB allocation reported by mallinfo(arena+hblkhd)
           360 MiB available memory on the node where the printing process lives
------------------
     ethr =  2.45E-10,  avg # of iterations =  4.0

     negative rho (up, down):  1.854E-01 0.000E+00

     total cpu time spent up to now is       74.7 secs

     total energy              =      -2.29534101 Ry
     estimated scf accuracy    <       0.00000016 Ry

     iteration # 93     ecut=    15.00 Ry     beta= 0.70
     Davidson diagonalization with overlap

---- Real-time Memory Report at c_bands before calling an iterative solver
           208 MiB given to the printing process from OS
             0 MiB allocation reported by mallinfo(arena+hblkhd)
           360 MiB available memory on the node where the printing process lives
------------------
     ethr =  2.45E-10,  avg # of iterations =  4.0

     negative rho (up, down):  1.854E-01 0.000E+00

     total cpu time spent up to now is       75.2 secs

     total energy              =      -2.29533025 Ry
     estimated scf accuracy    <       0.00000003 Ry

     iteration # 94     ecut=    15.00 Ry     beta= 0.70
     Davidson diagonalization with overlap

---- Real-time Memory Report at c_bands before calling an iterative solver
           208 MiB given to the printing process from OS
             0 MiB allocation reported by mallinfo(arena+hblkhd)
           360 MiB available memory on the node where the printing process lives
------------------
     ethr =  2.45E-10,  avg # of iterations =  4.0

     negative rho (up, down):  1.854E-01 0.000E+00

     total cpu time spent up to now is       75.6 secs

     total energy              =      -2.29531778 Ry
     estimated scf accuracy    <       0.00000002 Ry

     iteration # 95     ecut=    15.00 Ry     beta= 0.70
     Davidson diagonalization with overlap

---- Real-time Memory Report at c_bands before calling an iterative solver
           208 MiB given to the printing process from OS
             0 MiB allocation reported by mallinfo(arena+hblkhd)
           360 MiB available memory on the node where the printing process lives
------------------
     ethr =  2.45E-10,  avg # of iterations =  4.0

     negative rho (up, down):  1.853E-01 0.000E+00

     total cpu time spent up to now is       76.0 secs

     total energy              =      -2.29534026 Ry
     estimated scf accuracy    <       0.00000006 Ry

     iteration # 96     ecut=    15.00 Ry     beta= 0.70
     Davidson diagonalization with overlap

---- Real-time Memory Report at c_bands before calling an iterative solver
           208 MiB given to the printing process from OS
             0 MiB allocation reported by mallinfo(arena+hblkhd)
           360 MiB available memory on the node where the printing process lives
------------------
     ethr =  2.45E-10,  avg # of iterations =  4.0

     negative rho (up, down):  1.853E-01 0.000E+00

     total cpu time spent up to now is       76.4 secs

     total energy              =      -2.29534845 Ry
     estimated scf accuracy    <       0.00000003 Ry

     iteration # 97     ecut=    15.00 Ry     beta= 0.70
     Davidson diagonalization with overlap

---- Real-time Memory Report at c_bands before calling an iterative solver
           208 MiB given to the printing process from OS
             0 MiB allocation reported by mallinfo(arena+hblkhd)
           360 MiB available memory on the node where the printing process lives
------------------
     ethr =  2.45E-10,  avg # of iterations =  4.0

     negative rho (up, down):  1.853E-01 0.000E+00

     total cpu time spent up to now is       76.8 secs

     total energy              =      -2.29539863 Ry
     estimated scf accuracy    <       0.00000003 Ry

     iteration # 98     ecut=    15.00 Ry     beta= 0.70
     Davidson diagonalization with overlap

---- Real-time Memory Report at c_bands before calling an iterative solver
           208 MiB given to the printing process from OS
             0 MiB allocation reported by mallinfo(arena+hblkhd)
           360 MiB available memory on the node where the printing process lives
------------------
     ethr =  2.45E-10,  avg # of iterations =  4.0

     negative rho (up, down):  1.853E-01 0.000E+00

     total cpu time spent up to now is       77.2 secs

     total energy              =      -2.29536982 Ry
     estimated scf accuracy    <       0.00000035 Ry

     iteration # 99     ecut=    15.00 Ry     beta= 0.70
     Davidson diagonalization with overlap

---- Real-time Memory Report at c_bands before calling an iterative solver
           208 MiB given to the printing process from OS
             0 MiB allocation reported by mallinfo(arena+hblkhd)
           360 MiB available memory on the node where the printing process lives
------------------
     ethr =  2.45E-10,  avg # of iterations =  5.0

     negative rho (up, down):  1.853E-01 0.000E+00

     total cpu time spent up to now is       77.6 secs

     total energy              =      -2.29536048 Ry
     estimated scf accuracy    <       0.00000007 Ry

     iteration #100     ecut=    15.00 Ry     beta= 0.70
     Davidson diagonalization with overlap

---- Real-time Memory Report at c_bands before calling an iterative solver
           208 MiB given to the printing process from OS
             0 MiB allocation reported by mallinfo(arena+hblkhd)
           360 MiB available memory on the node where the printing process lives
------------------
     ethr =  2.45E-10,  avg # of iterations =  4.0

     negative rho (up, down):  1.854E-01 0.000E+00

     total cpu time spent up to now is       78.1 secs

     total energy              =      -2.29531999 Ry
     estimated scf accuracy    <       0.00000007 Ry

     End of self-consistent calculation

     convergence NOT achieved after 100 iterations: stopping

     Writing config to output data dir ./.save/
     Message from routine punch:
     wavefunctions written to file

     init_run     :      0.36s CPU      0.38s WALL (       1 calls)
     electrons    :     75.21s CPU     75.49s WALL (       7 calls)
     update_pot   :      1.44s CPU      1.49s WALL (       6 calls)
     forces       :      0.52s CPU      0.53s WALL (       6 calls)

     Called by init_run:
     wfcinit      :      0.03s CPU      0.03s WALL (       1 calls)
     wfcinit:atom :      0.00s CPU      0.00s WALL (       1 calls)
     wfcinit:wfcr :      0.03s CPU      0.03s WALL (       1 calls)
     potinit      :      0.21s CPU      0.23s WALL (       1 calls)
     hinit0       :      0.02s CPU      0.02s WALL (       1 calls)

     Called by electrons:
     c_bands      :     17.80s CPU     17.85s WALL (     185 calls)
     sum_band     :      8.39s CPU      8.42s WALL (     185 calls)
     v_of_rho     :     38.67s CPU     38.75s WALL (     191 calls)
     v_h          :      2.14s CPU      2.15s WALL (     191 calls)
     v_xc         :     36.53s CPU     36.59s WALL (     191 calls)
     newd         :      2.81s CPU      2.81s WALL (     191 calls)
     mix_rho      :      8.18s CPU      8.30s WALL (     185 calls)

     Called by c_bands:
     init_us_2    :      0.25s CPU      0.26s WALL (     371 calls)
     init_us_2:cp :      0.25s CPU      0.26s WALL (     371 calls)
     cegterg      :     17.62s CPU     17.67s WALL (     185 calls)

     Called by sum_band:
     sum_band:wei :      0.00s CPU      0.00s WALL (     185 calls)
     sum_band:loo :      2.45s CPU      2.45s WALL (     185 calls)
     sum_band:buf :      0.00s CPU      0.00s WALL (     185 calls)
     sum_band:ini :      0.13s CPU      0.13s WALL (     185 calls)
     sum_band:cal :      0.03s CPU      0.03s WALL (     185 calls)
     sum_band:bec :      0.00s CPU      0.00s WALL (     185 calls)
     addusdens    :      0.77s CPU      0.78s WALL (     185 calls)
     addusd:skk   :      0.23s CPU      0.24s WALL (     185 calls)
     addusd:dgemm :      0.16s CPU      0.17s WALL (     185 calls)
     addusd:qvan2 :      0.19s CPU      0.19s WALL (     185 calls)

     Called by *egterg:
     cdiaghg      :      0.02s CPU      0.02s WALL (     886 calls)
     cegterg:over :      0.24s CPU      0.24s WALL (     708 calls)
     cegterg:upda :      0.18s CPU      0.19s WALL (     708 calls)
     cegterg:last :      0.38s CPU      0.38s WALL (     541 calls)
     h_psi        :     16.43s CPU     16.47s WALL (     894 calls)
     s_psi        :      0.09s CPU      0.09s WALL (     894 calls)
     g_psi        :      0.09s CPU      0.09s WALL (     708 calls)

     Called by h_psi:
     h_psi:calbec :      0.13s CPU      0.13s WALL (     894 calls)
     vloc_psi     :     16.15s CPU     16.19s WALL (     894 calls)
     add_vuspsi   :      0.10s CPU      0.10s WALL (     894 calls)

     General routines
     calbec       :      0.16s CPU      0.16s WALL (    1103 calls)
     fft          :     19.01s CPU     19.02s WALL (    2120 calls)
     ffts         :      1.70s CPU      1.70s WALL (     185 calls)
     fftw         :     16.67s CPU     16.71s WALL (    3044 calls)
     davcio       :      0.01s CPU      0.01s WALL (      19 calls)


     PWSCF        :   1m17.78s CPU   1m18.14s WALL


   This run was terminated on:   3:10:24  28Feb2022            

=------------------------------------------------------------------------------=
   JOB DONE.
=------------------------------------------------------------------------------=
