
     Program PWSCF v.7.0 starts on 28Feb2022 at  1: 8:41 

     This program is part of the open-source Quantum ESPRESSO suite
     for quantum simulation of materials; please cite
         "P. Giannozzi et al., J. Phys.:Condens. Matter 21 395502 (2009);
         "P. Giannozzi et al., J. Phys.:Condens. Matter 29 465901 (2017);
         "P. Giannozzi et al., J. Chem. Phys. 152 154105 (2020);
          URL http://www.quantum-espresso.org", 
     in publications or presentations arising from this work. More details at
     http://www.quantum-espresso.org/quote

     Serial version
     522 MiB available memory on the printing compute node when the environment starts

     Waiting for input...
     Reading input from standard input

     Current dimensions of program PWSCF are:
     Max number of different atomic species (ntypx) = 10
     Max number of k-points (npk) =  40000
     Max angular momentum in pseudopotentials (lmaxx) =  4

     File ./.update deleted, as requested

     File ./.bfgs deleted, as requested

    ============================================================
    |  pseudopotential report for atomic species:  1           |
    |        pseudo potential version   7   3   2              |
    ------------------------------------------------------------
    |  hydrogen            PBE                  exchange-corr  |
    |  z =   1.    zv( 1) =   1.    exfact =   5.00000         |
    |  ifpcor =  0           atomic energy =  -0.91772 Ry      |
    |  index    orbital      occupation    energy              |
    |    1        100           1.00       -0.48               |
    |  rinner =  0.5000                                        |
    |    new generation scheme:                                |
    |    nbeta =  1     kkbeta =  271     rcloc =    0.6000    |
    |    ibeta    l     epsilon   rcut                         |
    |      1       0      -0.48   0.80                         |
    ============================================================

     IMPORTANT: XC functional enforced from input :
     Exchange-correlation= BLYP
                           (   1   3   1   3   0   0   0)
     Any further DFT definition will be discarded
     Please, verify this is what you really want


     G-vector sticks info
     --------------------
     sticks:   dense  smooth     PW     G-vecs:    dense   smooth      PW
     Sum        8585    8585   2289               599161   599161   82519

     Using Slab Decomposition



     bravais-lattice index     =            1
     lattice parameter (alat)  =      30.0000  a.u.
     unit-cell volume          =   27000.0000 (a.u.)^3
     number of atoms/cell      =            2
     number of atomic types    =            1
     number of electrons       =         2.00
     number of Kohn-Sham states=            2
     kinetic-energy cutoff     =      30.0000  Ry
     charge density cutoff     =     120.0000  Ry
     scf convergence threshold =      1.0E-08
     mixing beta               =       0.7000
     number of iterations used =            8  plain     mixing
     energy convergence thresh.=      1.0E-04
     force convergence thresh. =      1.0E-03
     Exchange-correlation= BLYP
                           (   1   3   1   3   0   0   0)
     nstep                     =           50


     celldm(1)=  30.000000  celldm(2)=   0.000000  celldm(3)=   0.000000
     celldm(4)=   0.000000  celldm(5)=   0.000000  celldm(6)=   0.000000

     crystal axes: (cart. coord. in units of alat)
               a(1) = (   1.000000   0.000000   0.000000 )  
               a(2) = (   0.000000   1.000000   0.000000 )  
               a(3) = (   0.000000   0.000000   1.000000 )  

     reciprocal axes: (cart. coord. in units 2 pi/alat)
               b(1) = (  1.000000  0.000000  0.000000 )  
               b(2) = (  0.000000  1.000000  0.000000 )  
               b(3) = (  0.000000  0.000000  1.000000 )  


     PseudoPot. # 1 for hy read from file:
     /root/q-e/pseudo/H_US.van
     MD5 check sum: a9a9bfe98ff56cf4de197d71fc46bb44
     Pseudo is Ultrasoft, Zval =  1.0
     Generated by Vanderbilt code, v. 7.3.2
     Using radial grid of  399 points,  1 beta functions with: 
                l(1) =   0
     Q(r) pseudized with  8 coefficients,  rinner =    0.500

     atomic species   valence    mass     pseudopotential
        H              1.00     1.00784     hy( 1.00)

      8 Sym. Ops. (no inversion) found


                                    s                        frac. trans.

      isym =  1     identity                                     

 cryst.   s( 1) = (     1          0          0      )
                  (     0          1          0      )
                  (     0          0          1      )

 cart.    s( 1) = (  1.0000000  0.0000000  0.0000000 )
                  (  0.0000000  1.0000000  0.0000000 )
                  (  0.0000000  0.0000000  1.0000000 )


      isym =  2     180 deg rotation - cart. axis [1,0,0]        

 cryst.   s( 2) = (     1          0          0      )
                  (     0         -1          0      )
                  (     0          0         -1      )

 cart.    s( 2) = (  1.0000000  0.0000000  0.0000000 )
                  (  0.0000000 -1.0000000  0.0000000 )
                  (  0.0000000  0.0000000 -1.0000000 )


      isym =  3      90 deg rotation - cart. axis [-1,0,0]       

 cryst.   s( 3) = (     1          0          0      )
                  (     0          0         -1      )
                  (     0          1          0      )

 cart.    s( 3) = (  1.0000000  0.0000000  0.0000000 )
                  (  0.0000000  0.0000000  1.0000000 )
                  (  0.0000000 -1.0000000  0.0000000 )


      isym =  4      90 deg rotation - cart. axis [1,0,0]        

 cryst.   s( 4) = (     1          0          0      )
                  (     0          0          1      )
                  (     0         -1          0      )

 cart.    s( 4) = (  1.0000000  0.0000000  0.0000000 )
                  (  0.0000000  0.0000000 -1.0000000 )
                  (  0.0000000  1.0000000  0.0000000 )


      isym =  5     inv. 180 deg rotation - cart. axis [0,0,1]   

 cryst.   s( 5) = (     1          0          0      )
                  (     0          1          0      )
                  (     0          0         -1      )

 cart.    s( 5) = (  1.0000000  0.0000000  0.0000000 )
                  (  0.0000000  1.0000000  0.0000000 )
                  (  0.0000000  0.0000000 -1.0000000 )


      isym =  6     inv. 180 deg rotation - cart. axis [0,1,0]   

 cryst.   s( 6) = (     1          0          0      )
                  (     0         -1          0      )
                  (     0          0          1      )

 cart.    s( 6) = (  1.0000000  0.0000000  0.0000000 )
                  (  0.0000000 -1.0000000  0.0000000 )
                  (  0.0000000  0.0000000  1.0000000 )


      isym =  7     inv. 180 deg rotation - cart. axis [0,1,1]   

 cryst.   s( 7) = (     1          0          0      )
                  (     0          0         -1      )
                  (     0         -1          0      )

 cart.    s( 7) = (  1.0000000  0.0000000  0.0000000 )
                  (  0.0000000  0.0000000 -1.0000000 )
                  (  0.0000000 -1.0000000  0.0000000 )


      isym =  8     inv. 180 deg rotation - cart. axis [0,1,-1]  

 cryst.   s( 8) = (     1          0          0      )
                  (     0          0          1      )
                  (     0          1          0      )

 cart.    s( 8) = (  1.0000000  0.0000000  0.0000000 )
                  (  0.0000000  0.0000000  1.0000000 )
                  (  0.0000000  1.0000000  0.0000000 )


     point group C_4v (4mm) 
     there are  5 classes
     the character table:

       E     2C4   C2    2s_v  2s_d 
A_1    1.00  1.00  1.00  1.00  1.00
A_2    1.00  1.00  1.00 -1.00 -1.00
B_1    1.00 -1.00  1.00  1.00 -1.00
B_2    1.00 -1.00  1.00 -1.00  1.00
E      2.00  0.00 -2.00  0.00  0.00

     the symmetry operations in each class and the name of the first element:

     E        1
          identity                                               
     2C4      3    4
           90 deg rotation - cart. axis [-1,0,0]                 
     C2       2
          180 deg rotation - cart. axis [1,0,0]                  
     2s_v     5    6
          inv. 180 deg rotation - cart. axis [0,0,1]             
     2s_d     7    8
          inv. 180 deg rotation - cart. axis [0,1,1]             

   Cartesian axes

     site n.     atom                  positions (alat units)
         1           H   tau(   1) = (   0.0000000   0.0000000   0.0000000  )
         2           H   tau(   2) = (   0.0629909   0.0000000   0.0000000  )

   Crystallographic axes

     site n.     atom                  positions (cryst. coord.)
         1           H   tau(   1) = (  0.0000000  0.0000000  0.0000000  )
         2           H   tau(   2) = (  0.0629909  0.0000000  0.0000000  )

     number of k points=     1
                       cart. coord. in units 2pi/alat
        k(    1) = (  -0.5000000  -0.5000000  -0.5000000), wk =   2.0000000

                       cryst. coord.
        k(    1) = (  -0.5000000  -0.5000000  -0.5000000), wk =   2.0000000

     Dense  grid:   599161 G-vectors     FFT dimensions: ( 108, 108, 108)

     Dynamical RAM for                 wfc:       2.29 MB

     Dynamical RAM for     wfc (w. buffer):       2.29 MB

     Dynamical RAM for           str. fact:       9.14 MB

     Dynamical RAM for           local pot:       0.00 MB

     Dynamical RAM for          nlocal pot:       2.29 MB

     Dynamical RAM for                qrad:       0.01 MB

     Dynamical RAM for          rho,v,vnew:      56.26 MB

     Dynamical RAM for               rhoin:      18.75 MB

     Dynamical RAM for            rho*nmix:     146.28 MB

     Dynamical RAM for           G-vectors:      38.86 MB

     Dynamical RAM for          h,s,v(r/c):       0.00 MB

     Dynamical RAM for          <psi|beta>:       0.00 MB

     Dynamical RAM for                 psi:       4.57 MB

     Dynamical RAM for                hpsi:       4.57 MB

     Dynamical RAM for                spsi:       4.57 MB

     Dynamical RAM for      wfcinit/wfcrot:       4.57 MB

     Dynamical RAM for           addusdens:      54.85 MB

     Dynamical RAM for          addusforce:      77.71 MB

     Estimated static dynamical RAM per process >     193.93 MB

     Estimated max dynamical RAM per process >     417.92 MB

     Initial potential from superposition of free atoms

     starting charge       2.0000, renormalised to       2.0000

     negative rho (up, down):  1.550E-02 0.000E+00
     Starting wfcs are    2 randomized atomic wfcs

     total cpu time spent up to now is        1.1 secs

     Self-consistent Calculation

     iteration #  1     ecut=    30.00 Ry     beta= 0.70
     Davidson diagonalization with overlap

---- Real-time Memory Report at c_bands before calling an iterative solver
           332 MiB given to the printing process from OS
             0 MiB allocation reported by mallinfo(arena+hblkhd)
           296 MiB available memory on the node where the printing process lives
------------------
     ethr =  1.00E-02,  avg # of iterations =  3.0

     negative rho (up, down):  1.677E-02 0.000E+00

     total cpu time spent up to now is        2.4 secs

     total energy              =      -2.26978844 Ry
     estimated scf accuracy    <       0.05434196 Ry

     iteration #  2     ecut=    30.00 Ry     beta= 0.70
     Davidson diagonalization with overlap

---- Real-time Memory Report at c_bands before calling an iterative solver
           423 MiB given to the printing process from OS
             0 MiB allocation reported by mallinfo(arena+hblkhd)
           112 MiB available memory on the node where the printing process lives
------------------
     ethr =  2.72E-03,  avg # of iterations =  1.0

     negative rho (up, down):  1.683E-02 0.000E+00

     total cpu time spent up to now is        3.4 secs

     total energy              =      -2.27290148 Ry
     estimated scf accuracy    <       0.00083339 Ry

     iteration #  3     ecut=    30.00 Ry     beta= 0.70
     Davidson diagonalization with overlap

---- Real-time Memory Report at c_bands before calling an iterative solver
           442 MiB given to the printing process from OS
             0 MiB allocation reported by mallinfo(arena+hblkhd)
           118 MiB available memory on the node where the printing process lives
------------------
     ethr =  4.17E-05,  avg # of iterations =  7.0

     negative rho (up, down):  1.653E-02 0.000E+00

     total cpu time spent up to now is        4.7 secs

     total energy              =      -2.27328086 Ry
     estimated scf accuracy    <       0.00001725 Ry

     iteration #  4     ecut=    30.00 Ry     beta= 0.70
     Davidson diagonalization with overlap

---- Real-time Memory Report at c_bands before calling an iterative solver
           460 MiB given to the printing process from OS
             0 MiB allocation reported by mallinfo(arena+hblkhd)
           100 MiB available memory on the node where the printing process lives
------------------
     ethr =  8.63E-07,  avg # of iterations =  6.0

     negative rho (up, down):  1.653E-02 0.000E+00

     total cpu time spent up to now is        6.0 secs

     total energy              =      -2.27328077 Ry
     estimated scf accuracy    <       0.00000069 Ry

     iteration #  5     ecut=    30.00 Ry     beta= 0.70
     Davidson diagonalization with overlap

---- Real-time Memory Report at c_bands before calling an iterative solver
           478 MiB given to the printing process from OS
             0 MiB allocation reported by mallinfo(arena+hblkhd)
           109 MiB available memory on the node where the printing process lives
------------------
     ethr =  3.44E-08,  avg # of iterations =  2.0

     negative rho (up, down):  1.653E-02 0.000E+00

     total cpu time spent up to now is        6.9 secs

     End of self-consistent calculation

          k =-0.5000-0.5000-0.5000 ( 74736 PWs)   bands (ev):

    -9.2852  -0.9308

     occupation numbers 
     1.0000   0.0000

     highest occupied, lowest unoccupied level (ev):    -9.2852   -0.9308

!    total energy              =      -2.27328203 Ry
     estimated scf accuracy    <          9.6E-09 Ry

     The total energy is the sum of the following terms:
     one-electron contribution =      -3.64862371 Ry
     hartree contribution      =       1.94097472 Ry
     xc contribution           =      -1.24623839 Ry
     ewald contribution        =       0.68060535 Ry

     convergence has been achieved in   5 iterations

     Forces acting on atoms (cartesian axes, Ry/au):

     atom    1 type  1   force =     0.16358138    0.00000000    0.00000000
     atom    2 type  1   force =    -0.16358138    0.00000000    0.00000000
     The non-local contrib.  to forces
     atom    1 type  1   force =     0.05728610    0.00000000    0.00000000
     atom    2 type  1   force =    -0.05741396    0.00000000    0.00000000
     The ionic contribution  to forces
     atom    1 type  1   force =    -0.55946378    0.00000000   -0.00000000
     atom    2 type  1   force =     0.55946378   -0.00000000   -0.00000000
     The local contribution  to forces
     atom    1 type  1   force =     0.66572073    0.00000000    0.00000000
     atom    2 type  1   force =    -0.66571405    0.00000000    0.00000000
     The core correction contribution to forces
     atom    1 type  1   force =     0.00000000    0.00000000    0.00000000
     atom    2 type  1   force =     0.00000000    0.00000000    0.00000000
     The Hubbard contrib.    to forces
     atom    1 type  1   force =     0.00000000    0.00000000    0.00000000
     atom    2 type  1   force =     0.00000000    0.00000000    0.00000000
     The SCF correction term to forces
     atom    1 type  1   force =    -0.00002287    0.00000000    0.00000000
     atom    2 type  1   force =     0.00002163    0.00000000    0.00000000

     Total force =     0.231339     Total SCF correction =     0.000031

     BFGS Geometry Optimization
     Energy error            =      0.0E+00 Ry
     Gradient error          =      1.6E-01 Ry/Bohr

     number of scf cycles    =   1
     number of bfgs steps    =   0

     energy             new  =      -2.2732820302 Ry

     new trust radius        =       0.1635813820 bohr
     new conv_thr            =       0.0000000100 Ry


ATOMIC_POSITIONS (angstrom)
H             0.0865635395        0.0000000000        0.0000000000
H             0.9134364605        0.0000000000        0.0000000000



     Writing config-only to output data dir ./.save/
     NEW-OLD atomic charge density approx. for the potential

     negative rho (up, down):  1.588E-02 0.000E+00

     total cpu time spent up to now is        8.0 secs

     Self-consistent Calculation

     iteration #  1     ecut=    30.00 Ry     beta= 0.70
     Davidson diagonalization with overlap

---- Real-time Memory Report at c_bands before calling an iterative solver
           488 MiB given to the printing process from OS
             0 MiB allocation reported by mallinfo(arena+hblkhd)
           335 MiB available memory on the node where the printing process lives
------------------
     ethr =  1.00E-06,  avg # of iterations = 14.0

     negative rho (up, down):  1.828E-02 0.000E+00

     total cpu time spent up to now is        9.8 secs

     total energy              =      -2.31378723 Ry
     estimated scf accuracy    <       0.00471404 Ry

     iteration #  2     ecut=    30.00 Ry     beta= 0.70
     Davidson diagonalization with overlap

---- Real-time Memory Report at c_bands before calling an iterative solver
           488 MiB given to the printing process from OS
             0 MiB allocation reported by mallinfo(arena+hblkhd)
           154 MiB available memory on the node where the printing process lives
------------------
     ethr =  2.36E-04,  avg # of iterations =  1.0

     negative rho (up, down):  1.880E-02 0.000E+00

     total cpu time spent up to now is       10.8 secs

     total energy              =      -2.31396468 Ry
     estimated scf accuracy    <       0.00005340 Ry

     iteration #  3     ecut=    30.00 Ry     beta= 0.70
     Davidson diagonalization with overlap

---- Real-time Memory Report at c_bands before calling an iterative solver
           488 MiB given to the printing process from OS
             0 MiB allocation reported by mallinfo(arena+hblkhd)
           137 MiB available memory on the node where the printing process lives
------------------
     ethr =  2.67E-06,  avg # of iterations =  7.0

     negative rho (up, down):  1.888E-02 0.000E+00

     total cpu time spent up to now is       12.2 secs

     total energy              =      -2.31395061 Ry
     estimated scf accuracy    <       0.00000217 Ry

     iteration #  4     ecut=    30.00 Ry     beta= 0.70
     Davidson diagonalization with overlap

---- Real-time Memory Report at c_bands before calling an iterative solver
           488 MiB given to the printing process from OS
             0 MiB allocation reported by mallinfo(arena+hblkhd)
           118 MiB available memory on the node where the printing process lives
------------------
     ethr =  1.08E-07,  avg # of iterations =  1.0

     negative rho (up, down):  1.888E-02 0.000E+00

     total cpu time spent up to now is       13.1 secs

     End of self-consistent calculation

          k =-0.5000-0.5000-0.5000 ( 74736 PWs)   bands (ev):

    -9.9508  -0.5399

     occupation numbers 
     1.0000   0.0000

     highest occupied, lowest unoccupied level (ev):    -9.9508   -0.5399

!    total energy              =      -2.31395122 Ry
     estimated scf accuracy    <          2.9E-09 Ry

     The total energy is the sum of the following terms:
     one-electron contribution =      -4.01505627 Ry
     hartree contribution      =       2.13241489 Ry
     xc contribution           =      -1.33333190 Ry
     ewald contribution        =       0.90202206 Ry

     convergence has been achieved in   4 iterations

     Forces acting on atoms (cartesian axes, Ry/au):

     atom    1 type  1   force =     0.07932841    0.00000000    0.00000000
     atom    2 type  1   force =    -0.07932841    0.00000000    0.00000000
     The non-local contrib.  to forces
     atom    1 type  1   force =     0.08507558    0.00000000    0.00000000
     atom    2 type  1   force =    -0.08542224    0.00000000    0.00000000
     The ionic contribution  to forces
     atom    1 type  1   force =    -0.81864483   -0.00000000   -0.00000000
     atom    2 type  1   force =     0.81864483   -0.00000000   -0.00000000
     The local contribution  to forces
     atom    1 type  1   force =     0.81274728    0.00000000    0.00000000
     atom    2 type  1   force =    -0.81272931    0.00000000    0.00000000
     The core correction contribution to forces
     atom    1 type  1   force =     0.00000000    0.00000000    0.00000000
     atom    2 type  1   force =     0.00000000    0.00000000    0.00000000
     The Hubbard contrib.    to forces
     atom    1 type  1   force =     0.00000000    0.00000000    0.00000000
     atom    2 type  1   force =     0.00000000    0.00000000    0.00000000
     The SCF correction term to forces
     atom    1 type  1   force =    -0.00000375   -0.00000000    0.00000000
     atom    2 type  1   force =     0.00002418   -0.00000000   -0.00000000

     Total force =     0.112187     Total SCF correction =     0.000024
     Energy error            =      4.1E-02 Ry
     Gradient error          =      7.9E-02 Ry/Bohr

     number of scf cycles    =   2
     number of bfgs steps    =   1

     energy             old  =      -2.2732820302 Ry
     energy             new  =      -2.3139512161 Ry

     CASE: energy            _new < energy            _old

     new trust radius        =       0.1540201085 bohr
     new conv_thr            =       0.0000000079 Ry


ATOMIC_POSITIONS (angstrom)
H             0.1680674709        0.0000000000        0.0000000000
H             0.8319325291        0.0000000000        0.0000000000



     Writing config-only to output data dir ./.save/
     NEW-OLD atomic charge density approx. for the potential

     negative rho (up, down):  1.925E-02 0.000E+00

     total cpu time spent up to now is       14.2 secs

     Self-consistent Calculation

     iteration #  1     ecut=    30.00 Ry     beta= 0.70
     Davidson diagonalization with overlap

---- Real-time Memory Report at c_bands before calling an iterative solver
           488 MiB given to the printing process from OS
             0 MiB allocation reported by mallinfo(arena+hblkhd)
           335 MiB available memory on the node where the printing process lives
------------------
     ethr =  1.00E-06,  avg # of iterations = 12.0

     negative rho (up, down):  2.352E-02 0.000E+00

     total cpu time spent up to now is       16.0 secs

     total energy              =      -2.30425064 Ry
     estimated scf accuracy    <       0.00778855 Ry

     iteration #  2     ecut=    30.00 Ry     beta= 0.70
     Davidson diagonalization with overlap

---- Real-time Memory Report at c_bands before calling an iterative solver
           488 MiB given to the printing process from OS
             0 MiB allocation reported by mallinfo(arena+hblkhd)
           153 MiB available memory on the node where the printing process lives
------------------
     ethr =  3.89E-04,  avg # of iterations =  1.0

     negative rho (up, down):  2.450E-02 0.000E+00

     total cpu time spent up to now is       17.1 secs

     total energy              =      -2.30440665 Ry
     estimated scf accuracy    <       0.00007091 Ry

     iteration #  3     ecut=    30.00 Ry     beta= 0.70
     Davidson diagonalization with overlap

---- Real-time Memory Report at c_bands before calling an iterative solver
           488 MiB given to the printing process from OS
             0 MiB allocation reported by mallinfo(arena+hblkhd)
           135 MiB available memory on the node where the printing process lives
------------------
     ethr =  3.55E-06,  avg # of iterations =  5.0

     negative rho (up, down):  2.471E-02 0.000E+00

     total cpu time spent up to now is       18.4 secs

     total energy              =      -2.30430392 Ry
     estimated scf accuracy    <       0.00000286 Ry

     iteration #  4     ecut=    30.00 Ry     beta= 0.70
     Davidson diagonalization with overlap

---- Real-time Memory Report at c_bands before calling an iterative solver
           488 MiB given to the printing process from OS
             0 MiB allocation reported by mallinfo(arena+hblkhd)
           117 MiB available memory on the node where the printing process lives
------------------
     ethr =  1.43E-07,  avg # of iterations =  1.0

     negative rho (up, down):  2.471E-02 0.000E+00

     total cpu time spent up to now is       19.4 secs

     End of self-consistent calculation

          k =-0.5000-0.5000-0.5000 ( 74736 PWs)   bands (ev):

   -10.7649  -0.7714

     occupation numbers 
     1.0000   0.0000

     highest occupied, lowest unoccupied level (ev):   -10.7649   -0.7714

!    total energy              =      -2.30430483 Ry
     estimated scf accuracy    <          2.0E-09 Ry

     The total energy is the sum of the following terms:
     one-electron contribution =      -4.43547679 Ry
     hartree contribution      =       2.35222884 Ry
     xc contribution           =      -1.43722657 Ry
     ewald contribution        =       1.21616969 Ry

     convergence has been achieved in   4 iterations

     Forces acting on atoms (cartesian axes, Ry/au):

     atom    1 type  1   force =    -0.17242878    0.00000000    0.00000000
     atom    2 type  1   force =     0.17242878    0.00000000    0.00000000
     The non-local contrib.  to forces
     atom    1 type  1   force =     0.11837230    0.00000000    0.00000000
     atom    2 type  1   force =    -0.11855237    0.00000000    0.00000000
     The ionic contribution  to forces
     atom    1 type  1   force =    -1.27039536   -0.00000000   -0.00000000
     atom    2 type  1   force =     1.27039536   -0.00000000   -0.00000000
     The local contribution  to forces
     atom    1 type  1   force =     0.97951250    0.00000000    0.00000000
     atom    2 type  1   force =    -0.97955192    0.00000000    0.00000000
     The core correction contribution to forces
     atom    1 type  1   force =     0.00000000    0.00000000    0.00000000
     atom    2 type  1   force =     0.00000000    0.00000000    0.00000000
     The Hubbard contrib.    to forces
     atom    1 type  1   force =     0.00000000    0.00000000    0.00000000
     atom    2 type  1   force =     0.00000000    0.00000000    0.00000000
     The SCF correction term to forces
     atom    1 type  1   force =    -0.00002968   -0.00000000    0.00000000
     atom    2 type  1   force =     0.00002625    0.00000000    0.00000000

     Total force =     0.243851     Total SCF correction =     0.000040
     Energy error            =      9.6E-03 Ry
     Gradient error          =      1.7E-01 Ry/Bohr

     number of scf cycles    =   3
     number of bfgs steps    =   2

     energy             old  =      -2.3139512161 Ry
     energy             new  =      -2.3043048267 Ry

     CASE: energy            _new > energy            _old

     new trust radius        =       0.0552140025 bohr
     new conv_thr            =       0.0000000079 Ry


ATOMIC_POSITIONS (angstrom)
H             0.1157815313        0.0000000000        0.0000000000
H             0.8842184687        0.0000000000        0.0000000000



     Writing config-only to output data dir ./.save/
     NEW-OLD atomic charge density approx. for the potential

     negative rho (up, down):  2.316E-02 0.000E+00

     total cpu time spent up to now is       20.6 secs

     Self-consistent Calculation

     iteration #  1     ecut=    30.00 Ry     beta= 0.70
     Davidson diagonalization with overlap

---- Real-time Memory Report at c_bands before calling an iterative solver
           488 MiB given to the printing process from OS
             0 MiB allocation reported by mallinfo(arena+hblkhd)
           334 MiB available memory on the node where the printing process lives
------------------
     ethr =  1.00E-06,  avg # of iterations =  9.0

     negative rho (up, down):  2.116E-02 0.000E+00

     total cpu time spent up to now is       22.1 secs

     total energy              =      -2.31832887 Ry
     estimated scf accuracy    <       0.00352926 Ry

     iteration #  2     ecut=    30.00 Ry     beta= 0.70
     Davidson diagonalization with overlap

---- Real-time Memory Report at c_bands before calling an iterative solver
           488 MiB given to the printing process from OS
             0 MiB allocation reported by mallinfo(arena+hblkhd)
           153 MiB available memory on the node where the printing process lives
------------------
     ethr =  1.76E-04,  avg # of iterations =  2.0

     negative rho (up, down):  2.091E-02 0.000E+00

     total cpu time spent up to now is       23.2 secs

     total energy              =      -2.31886340 Ry
     estimated scf accuracy    <       0.00003671 Ry

     iteration #  3     ecut=    30.00 Ry     beta= 0.70
     Davidson diagonalization with overlap

---- Real-time Memory Report at c_bands before calling an iterative solver
           488 MiB given to the printing process from OS
             0 MiB allocation reported by mallinfo(arena+hblkhd)
           135 MiB available memory on the node where the printing process lives
------------------
     ethr =  1.84E-06,  avg # of iterations =  6.0

     negative rho (up, down):  2.086E-02 0.000E+00

     total cpu time spent up to now is       24.5 secs

     total energy              =      -2.31888223 Ry
     estimated scf accuracy    <       0.00000229 Ry

     iteration #  4     ecut=    30.00 Ry     beta= 0.70
     Davidson diagonalization with overlap

---- Real-time Memory Report at c_bands before calling an iterative solver
           488 MiB given to the printing process from OS
             0 MiB allocation reported by mallinfo(arena+hblkhd)
           117 MiB available memory on the node where the printing process lives
------------------
     ethr =  1.15E-07,  avg # of iterations =  1.0

     negative rho (up, down):  2.086E-02 0.000E+00

     total cpu time spent up to now is       25.5 secs

     total energy              =      -2.31888101 Ry
     estimated scf accuracy    <       0.00000001 Ry

     iteration #  5     ecut=    30.00 Ry     beta= 0.70
     Davidson diagonalization with overlap

---- Real-time Memory Report at c_bands before calling an iterative solver
           489 MiB given to the printing process from OS
             0 MiB allocation reported by mallinfo(arena+hblkhd)
            99 MiB available memory on the node where the printing process lives
------------------
     ethr =  5.86E-10,  avg # of iterations =  2.0

     negative rho (up, down):  2.087E-02 0.000E+00

     total cpu time spent up to now is       26.5 secs

     End of self-consistent calculation

          k =-0.5000-0.5000-0.5000 ( 74736 PWs)   bands (ev):

   -10.2208  -0.5846

     occupation numbers 
     1.0000   0.0000

     highest occupied, lowest unoccupied level (ev):   -10.2208   -0.5846

!    total energy              =      -2.31887652 Ry
     estimated scf accuracy    <          4.1E-09 Ry

     The total energy is the sum of the following terms:
     one-electron contribution =      -4.15672703 Ry
     hartree contribution      =       2.20672138 Ry
     xc contribution           =      -1.36817488 Ry
     ewald contribution        =       0.99930401 Ry

     convergence has been achieved in   5 iterations

     Forces acting on atoms (cartesian axes, Ry/au):

     atom    1 type  1   force =     0.02357895    0.00000000    0.00000000
     atom    2 type  1   force =    -0.02357895    0.00000000    0.00000000
     The non-local contrib.  to forces
     atom    1 type  1   force =     0.10158316    0.00000000    0.00000000
     atom    2 type  1   force =    -0.10146204    0.00000000    0.00000000
     The ionic contribution  to forces
     atom    1 type  1   force =    -0.94799926    0.00000000   -0.00000000
     atom    2 type  1   force =     0.94799926   -0.00000000   -0.00000000
     The local contribution  to forces
     atom    1 type  1   force =     0.87007316    0.00000000    0.00000000
     atom    2 type  1   force =    -0.87005987    0.00000000    0.00000000
     The core correction contribution to forces
     atom    1 type  1   force =     0.00000000    0.00000000    0.00000000
     atom    2 type  1   force =     0.00000000    0.00000000    0.00000000
     The Hubbard contrib.    to forces
     atom    1 type  1   force =     0.00000000    0.00000000    0.00000000
     atom    2 type  1   force =     0.00000000    0.00000000    0.00000000
     The SCF correction term to forces
     atom    1 type  1   force =    -0.00000666   -0.00000000   -0.00000000
     atom    2 type  1   force =     0.00001516    0.00000000   -0.00000000

     Total force =     0.033346     Total SCF correction =     0.000017
     Energy error            =      4.9E-03 Ry
     Gradient error          =      2.4E-02 Ry/Bohr

     number of scf cycles    =   4
     number of bfgs steps    =   2

     energy             old  =      -2.3139512161 Ry
     energy             new  =      -2.3188765243 Ry

     CASE: energy            _new < energy            _old

     new trust radius        =       0.0233524806 bohr
     new conv_thr            =       0.0000000024 Ry


ATOMIC_POSITIONS (angstrom)
H             0.1281391319        0.0000000000        0.0000000000
H             0.8718608681        0.0000000000        0.0000000000



     Writing config-only to output data dir ./.save/
     NEW-OLD atomic charge density approx. for the potential

     negative rho (up, down):  2.118E-02 0.000E+00

     total cpu time spent up to now is       27.6 secs

     Self-consistent Calculation

     iteration #  1     ecut=    30.00 Ry     beta= 0.70
     Davidson diagonalization with overlap

---- Real-time Memory Report at c_bands before calling an iterative solver
           489 MiB given to the printing process from OS
             0 MiB allocation reported by mallinfo(arena+hblkhd)
           335 MiB available memory on the node where the printing process lives
------------------
     ethr =  1.00E-06,  avg # of iterations =  6.0

     negative rho (up, down):  2.177E-02 0.000E+00

     total cpu time spent up to now is       29.0 secs

     total energy              =      -2.31873597 Ry
     estimated scf accuracy    <       0.00017067 Ry

     iteration #  2     ecut=    30.00 Ry     beta= 0.70
     Davidson diagonalization with overlap

---- Real-time Memory Report at c_bands before calling an iterative solver
           489 MiB given to the printing process from OS
             0 MiB allocation reported by mallinfo(arena+hblkhd)
           154 MiB available memory on the node where the printing process lives
------------------
     ethr =  8.53E-06,  avg # of iterations =  1.0

     negative rho (up, down):  2.190E-02 0.000E+00

     total cpu time spent up to now is       30.0 secs

     total energy              =      -2.31867739 Ry
     estimated scf accuracy    <       0.00000193 Ry

     iteration #  3     ecut=    30.00 Ry     beta= 0.70
     Davidson diagonalization with overlap

---- Real-time Memory Report at c_bands before calling an iterative solver
           489 MiB given to the printing process from OS
             0 MiB allocation reported by mallinfo(arena+hblkhd)
           135 MiB available memory on the node where the printing process lives
------------------
     ethr =  9.67E-08,  avg # of iterations =  2.0

     negative rho (up, down):  2.193E-02 0.000E+00

     total cpu time spent up to now is       31.1 secs

     total energy              =      -2.31866225 Ry
     estimated scf accuracy    <       0.00000008 Ry

     iteration #  4     ecut=    30.00 Ry     beta= 0.70
     Davidson diagonalization with overlap

---- Real-time Memory Report at c_bands before calling an iterative solver
           489 MiB given to the printing process from OS
             0 MiB allocation reported by mallinfo(arena+hblkhd)
           117 MiB available memory on the node where the printing process lives
------------------
     ethr =  4.13E-09,  avg # of iterations =  2.0

     negative rho (up, down):  2.193E-02 0.000E+00

     total cpu time spent up to now is       32.1 secs

     End of self-consistent calculation

          k =-0.5000-0.5000-0.5000 ( 74736 PWs)   bands (ev):

   -10.3419  -0.6443

     occupation numbers 
     1.0000   0.0000

     highest occupied, lowest unoccupied level (ev):   -10.3419   -0.6443

!    total energy              =      -2.31866219 Ry
     estimated scf accuracy    <          2.0E-10 Ry

     The total energy is the sum of the following terms:
     one-electron contribution =      -4.21967621 Ry
     hartree contribution      =       2.23975407 Ry
     xc contribution           =      -1.38379275 Ry
     ewald contribution        =       1.04505270 Ry

     convergence has been achieved in   4 iterations

     Forces acting on atoms (cartesian axes, Ry/au):

     atom    1 type  1   force =    -0.00960744    0.00000000    0.00000000
     atom    2 type  1   force =     0.00960744    0.00000000    0.00000000
     The non-local contrib.  to forces
     atom    1 type  1   force =     0.10717200    0.00000000    0.00000000
     atom    2 type  1   force =    -0.10713769    0.00000000    0.00000000
     The ionic contribution  to forces
     atom    1 type  1   force =    -1.01209904   -0.00000000   -0.00000000
     atom    2 type  1   force =     1.01209904   -0.00000000   -0.00000000
     The local contribution  to forces
     atom    1 type  1   force =     0.89533612    0.00000000    0.00000000
     atom    2 type  1   force =    -0.89535448    0.00000000    0.00000000
     The core correction contribution to forces
     atom    1 type  1   force =     0.00000000    0.00000000    0.00000000
     atom    2 type  1   force =     0.00000000    0.00000000    0.00000000
     The Hubbard contrib.    to forces
     atom    1 type  1   force =     0.00000000    0.00000000    0.00000000
     atom    2 type  1   force =     0.00000000    0.00000000    0.00000000
     The SCF correction term to forces
     atom    1 type  1   force =    -0.00000598    0.00000000   -0.00000000
     atom    2 type  1   force =     0.00001111   -0.00000000    0.00000000

     Total force =     0.013587     Total SCF correction =     0.000013
     Energy error            =      2.1E-04 Ry
     Gradient error          =      9.6E-03 Ry/Bohr

     number of scf cycles    =   5
     number of bfgs steps    =   3

     energy             old  =      -2.3188765243 Ry
     energy             new  =      -2.3186621905 Ry

     CASE: energy            _new > energy            _old

     new trust radius        =       0.0097739629 bohr
     new conv_thr            =       0.0000000024 Ry


ATOMIC_POSITIONS (angstrom)
H             0.1209536898        0.0000000000        0.0000000000
H             0.8790463102        0.0000000000        0.0000000000



     Writing config-only to output data dir ./.save/
     NEW-OLD atomic charge density approx. for the potential

     negative rho (up, down):  2.172E-02 0.000E+00

     total cpu time spent up to now is       33.2 secs

     Self-consistent Calculation

     iteration #  1     ecut=    30.00 Ry     beta= 0.70
     Davidson diagonalization with overlap

---- Real-time Memory Report at c_bands before calling an iterative solver
           489 MiB given to the printing process from OS
             0 MiB allocation reported by mallinfo(arena+hblkhd)
           335 MiB available memory on the node where the printing process lives
------------------
     ethr =  1.00E-06,  avg # of iterations =  3.0

     negative rho (up, down):  2.139E-02 0.000E+00

     total cpu time spent up to now is       34.4 secs

     total energy              =      -2.31892867 Ry
     estimated scf accuracy    <       0.00005953 Ry

     iteration #  2     ecut=    30.00 Ry     beta= 0.70
     Davidson diagonalization with overlap

---- Real-time Memory Report at c_bands before calling an iterative solver
           489 MiB given to the printing process from OS
             0 MiB allocation reported by mallinfo(arena+hblkhd)
           154 MiB available memory on the node where the printing process lives
------------------
     ethr =  2.98E-06,  avg # of iterations =  1.0

     negative rho (up, down):  2.132E-02 0.000E+00

     total cpu time spent up to now is       35.5 secs

     total energy              =      -2.31896668 Ry
     estimated scf accuracy    <       0.00000066 Ry

     iteration #  3     ecut=    30.00 Ry     beta= 0.70
     Davidson diagonalization with overlap

---- Real-time Memory Report at c_bands before calling an iterative solver
           489 MiB given to the printing process from OS
             0 MiB allocation reported by mallinfo(arena+hblkhd)
           135 MiB available memory on the node where the printing process lives
------------------
     ethr =  3.31E-08,  avg # of iterations =  2.0

     negative rho (up, down):  2.130E-02 0.000E+00

     total cpu time spent up to now is       36.5 secs

     total energy              =      -2.31897519 Ry
     estimated scf accuracy    <       0.00000003 Ry

     iteration #  4     ecut=    30.00 Ry     beta= 0.70
     Davidson diagonalization with overlap

---- Real-time Memory Report at c_bands before calling an iterative solver
           489 MiB given to the printing process from OS
             0 MiB allocation reported by mallinfo(arena+hblkhd)
           117 MiB available memory on the node where the printing process lives
------------------
     ethr =  1.57E-09,  avg # of iterations =  2.0

     negative rho (up, down):  2.130E-02 0.000E+00

     total cpu time spent up to now is       37.5 secs

     End of self-consistent calculation

          k =-0.5000-0.5000-0.5000 ( 74736 PWs)   bands (ev):

   -10.2708  -0.6117

     occupation numbers 
     1.0000   0.0000

     highest occupied, lowest unoccupied level (ev):   -10.2708   -0.6117

!    total energy              =      -2.31897715 Ry
     estimated scf accuracy    <          1.0E-10 Ry

     The total energy is the sum of the following terms:
     one-electron contribution =      -4.18280392 Ry
     hartree contribution      =       2.22034482 Ry
     xc contribution           =      -1.37460653 Ry
     ewald contribution        =       1.01808847 Ry

     convergence has been achieved in   4 iterations

     Forces acting on atoms (cartesian axes, Ry/au):

     atom    1 type  1   force =     0.01057956    0.00000000    0.00000000
     atom    2 type  1   force =    -0.01057956    0.00000000    0.00000000
     The non-local contrib.  to forces
     atom    1 type  1   force =     0.10413731    0.00000000    0.00000000
     atom    2 type  1   force =    -0.10405747    0.00000000    0.00000000
     The ionic contribution  to forces
     atom    1 type  1   force =    -0.97406568    0.00000000   -0.00000000
     atom    2 type  1   force =     0.97406568   -0.00000000   -0.00000000
     The local contribution  to forces
     atom    1 type  1   force =     0.88054252    0.00000000    0.00000000
     atom    2 type  1   force =    -0.88054482    0.00000000    0.00000000
     The core correction contribution to forces
     atom    1 type  1   force =     0.00000000    0.00000000    0.00000000
     atom    2 type  1   force =     0.00000000    0.00000000    0.00000000
     The Hubbard contrib.    to forces
     atom    1 type  1   force =     0.00000000    0.00000000    0.00000000
     atom    2 type  1   force =     0.00000000    0.00000000    0.00000000
     The SCF correction term to forces
     atom    1 type  1   force =    -0.00000018   -0.00000000   -0.00000000
     atom    2 type  1   force =    -0.00000852   -0.00000000   -0.00000000

     Total force =     0.014962     Total SCF correction =     0.000009
     Energy error            =      1.0E-04 Ry
     Gradient error          =      1.1E-02 Ry/Bohr

     number of scf cycles    =   6
     number of bfgs steps    =   3

     energy             old  =      -2.3188765243 Ry
     energy             new  =      -2.3189771512 Ry

     CASE: energy            _new < energy            _old

     new trust radius        =       0.0079545436 bohr
     new conv_thr            =       0.0000000001 Ry


ATOMIC_POSITIONS (angstrom)
H             0.1251630529        0.0000000000        0.0000000000
H             0.8748369471        0.0000000000        0.0000000000



     Writing config-only to output data dir ./.save/
     NEW-OLD atomic charge density approx. for the potential

     negative rho (up, down):  2.142E-02 0.000E+00

     total cpu time spent up to now is       38.6 secs

     Self-consistent Calculation

     iteration #  1     ecut=    30.00 Ry     beta= 0.70
     Davidson diagonalization with overlap

---- Real-time Memory Report at c_bands before calling an iterative solver
           489 MiB given to the printing process from OS
             0 MiB allocation reported by mallinfo(arena+hblkhd)
           333 MiB available memory on the node where the printing process lives
------------------
     ethr =  1.00E-06,  avg # of iterations =  3.0

     negative rho (up, down):  2.162E-02 0.000E+00

     total cpu time spent up to now is       39.8 secs

     total energy              =      -2.31889547 Ry
     estimated scf accuracy    <       0.00002018 Ry

     iteration #  2     ecut=    30.00 Ry     beta= 0.70
     Davidson diagonalization with overlap

---- Real-time Memory Report at c_bands before calling an iterative solver
           489 MiB given to the printing process from OS
             0 MiB allocation reported by mallinfo(arena+hblkhd)
           152 MiB available memory on the node where the printing process lives
------------------
     ethr =  1.01E-06,  avg # of iterations =  1.0

     negative rho (up, down):  2.166E-02 0.000E+00

     total cpu time spent up to now is       40.8 secs

     total energy              =      -2.31887209 Ry
     estimated scf accuracy    <       0.00000023 Ry

     iteration #  3     ecut=    30.00 Ry     beta= 0.70
     Davidson diagonalization with overlap

---- Real-time Memory Report at c_bands before calling an iterative solver
           489 MiB given to the printing process from OS
             0 MiB allocation reported by mallinfo(arena+hblkhd)
           134 MiB available memory on the node where the printing process lives
------------------
     ethr =  1.14E-08,  avg # of iterations =  2.0

     negative rho (up, down):  2.167E-02 0.000E+00

     total cpu time spent up to now is       41.9 secs

     total energy              =      -2.31886776 Ry
     estimated scf accuracy    <       0.00000001 Ry

     iteration #  4     ecut=    30.00 Ry     beta= 0.70
     Davidson diagonalization with overlap

---- Real-time Memory Report at c_bands before calling an iterative solver
           489 MiB given to the printing process from OS
             0 MiB allocation reported by mallinfo(arena+hblkhd)
           115 MiB available memory on the node where the printing process lives
------------------
     ethr =  5.04E-10,  avg # of iterations =  2.0

     negative rho (up, down):  2.167E-02 0.000E+00

     total cpu time spent up to now is       42.9 secs

     End of self-consistent calculation

          k =-0.5000-0.5000-0.5000 ( 74736 PWs)   bands (ev):

   -10.3123  -0.6299

     occupation numbers 
     1.0000   0.0000

     highest occupied, lowest unoccupied level (ev):   -10.3123   -0.6299

!    total energy              =      -2.31886786 Ry
     estimated scf accuracy    <          2.6E-11 Ry

     The total energy is the sum of the following terms:
     one-electron contribution =      -4.20432687 Ry
     hartree contribution      =       2.23167197 Ry
     xc contribution           =      -1.37997207 Ry
     ewald contribution        =       1.03375911 Ry

     convergence has been achieved in   4 iterations

     Forces acting on atoms (cartesian axes, Ry/au):

     atom    1 type  1   force =    -0.00099600    0.00000000    0.00000000
     atom    2 type  1   force =     0.00099600    0.00000000    0.00000000
     The non-local contrib.  to forces
     atom    1 type  1   force =     0.10591665    0.00000000    0.00000000
     atom    2 type  1   force =    -0.10587924    0.00000000    0.00000000
     The ionic contribution  to forces
     atom    1 type  1   force =    -0.99608089   -0.00000000   -0.00000000
     atom    2 type  1   force =     0.99608089   -0.00000000   -0.00000000
     The local contribution  to forces
     atom    1 type  1   force =     0.88918369    0.00000000    0.00000000
     atom    2 type  1   force =    -0.88919432    0.00000000    0.00000000
     The core correction contribution to forces
     atom    1 type  1   force =     0.00000000    0.00000000    0.00000000
     atom    2 type  1   force =     0.00000000    0.00000000    0.00000000
     The Hubbard contrib.    to forces
     atom    1 type  1   force =     0.00000000    0.00000000    0.00000000
     atom    2 type  1   force =     0.00000000    0.00000000    0.00000000
     The SCF correction term to forces
     atom    1 type  1   force =    -0.00000202   -0.00000000    0.00000000
     atom    2 type  1   force =     0.00000210   -0.00000000   -0.00000000

     Total force =     0.001409     Total SCF correction =     0.000003
     Energy error            =      1.1E-04 Ry
     Gradient error          =      1.0E-03 Ry/Bohr

     number of scf cycles    =   7
     number of bfgs steps    =   4

     energy             old  =      -2.3189771512 Ry
     energy             new  =      -2.3188678587 Ry

     CASE: energy            _new > energy            _old

     new trust radius        =       0.0024114205 bohr
     new conv_thr            =       0.0000000001 Ry


ATOMIC_POSITIONS (angstrom)
H             0.1222297585        0.0000000000        0.0000000000
H             0.8777702415        0.0000000000        0.0000000000



     Writing config-only to output data dir ./.save/
     NEW-OLD atomic charge density approx. for the potential

     negative rho (up, down):  2.159E-02 0.000E+00

     total cpu time spent up to now is       44.0 secs

     Self-consistent Calculation

     iteration #  1     ecut=    30.00 Ry     beta= 0.70
     Davidson diagonalization with overlap

---- Real-time Memory Report at c_bands before calling an iterative solver
           489 MiB given to the printing process from OS
             0 MiB allocation reported by mallinfo(arena+hblkhd)
           333 MiB available memory on the node where the printing process lives
------------------
     ethr =  1.00E-06,  avg # of iterations =  2.0

     negative rho (up, down):  2.145E-02 0.000E+00

     total cpu time spent up to now is       45.1 secs

     total energy              =      -2.31893858 Ry
     estimated scf accuracy    <       0.00000933 Ry

     iteration #  2     ecut=    30.00 Ry     beta= 0.70
     Davidson diagonalization with overlap

---- Real-time Memory Report at c_bands before calling an iterative solver
           489 MiB given to the printing process from OS
             0 MiB allocation reported by mallinfo(arena+hblkhd)
           152 MiB available memory on the node where the printing process lives
------------------
     ethr =  4.66E-07,  avg # of iterations =  1.0

     negative rho (up, down):  2.142E-02 0.000E+00

     total cpu time spent up to now is       46.1 secs

     total energy              =      -2.31895694 Ry
     estimated scf accuracy    <       0.00000018 Ry

     iteration #  3     ecut=    30.00 Ry     beta= 0.70
     Davidson diagonalization with overlap

---- Real-time Memory Report at c_bands before calling an iterative solver
           489 MiB given to the printing process from OS
             0 MiB allocation reported by mallinfo(arena+hblkhd)
           134 MiB available memory on the node where the printing process lives
------------------
     ethr =  9.25E-09,  avg # of iterations =  2.0

     negative rho (up, down):  2.142E-02 0.000E+00

     total cpu time spent up to now is       47.2 secs

     total energy              =      -2.31895776 Ry
     estimated scf accuracy    <          7.0E-09 Ry

     iteration #  4     ecut=    30.00 Ry     beta= 0.70
     Davidson diagonalization with overlap

---- Real-time Memory Report at c_bands before calling an iterative solver
           489 MiB given to the printing process from OS
             0 MiB allocation reported by mallinfo(arena+hblkhd)
           115 MiB available memory on the node where the printing process lives
------------------
     ethr =  3.50E-10,  avg # of iterations =  2.0

     negative rho (up, down):  2.141E-02 0.000E+00

     total cpu time spent up to now is       48.2 secs

     total energy              =      -2.31895965 Ry
     estimated scf accuracy    <          5.4E-10 Ry

     iteration #  5     ecut=    30.00 Ry     beta= 0.70
     Davidson diagonalization with overlap

---- Real-time Memory Report at c_bands before calling an iterative solver
           489 MiB given to the printing process from OS
             0 MiB allocation reported by mallinfo(arena+hblkhd)
            97 MiB available memory on the node where the printing process lives
------------------
     ethr =  2.69E-11,  avg # of iterations =  2.0

     negative rho (up, down):  2.141E-02 0.000E+00

     total cpu time spent up to now is       49.2 secs

     End of self-consistent calculation

          k =-0.5000-0.5000-0.5000 ( 74736 PWs)   bands (ev):

   -10.2834  -0.6172

     occupation numbers 
     1.0000   0.0000

     highest occupied, lowest unoccupied level (ev):   -10.2834   -0.6172

!    total energy              =      -2.31895736 Ry
     estimated scf accuracy    <          1.2E-12 Ry

     The total energy is the sum of the following terms:
     one-electron contribution =      -4.18930330 Ry
     hartree contribution      =       2.22376209 Ry
     xc contribution           =      -1.37621827 Ry
     ewald contribution        =       1.02280211 Ry

     convergence has been achieved in   5 iterations

     Forces acting on atoms (cartesian axes, Ry/au):

     atom    1 type  1   force =     0.00712583    0.00000000    0.00000000
     atom    2 type  1   force =    -0.00712583    0.00000000    0.00000000
     The non-local contrib.  to forces
     atom    1 type  1   force =     0.10465430    0.00000000    0.00000000
     atom    2 type  1   force =    -0.10460727    0.00000000    0.00000000
     The ionic contribution  to forces
     atom    1 type  1   force =    -0.98066193   -0.00000000   -0.00000000
     atom    2 type  1   force =     0.98066193   -0.00000000   -0.00000000
     The local contribution  to forces
     atom    1 type  1   force =     0.88315266    0.00000000    0.00000000
     atom    2 type  1   force =    -0.88316215    0.00000000    0.00000000
     The core correction contribution to forces
     atom    1 type  1   force =     0.00000000    0.00000000    0.00000000
     atom    2 type  1   force =     0.00000000    0.00000000    0.00000000
     The Hubbard contrib.    to forces
     atom    1 type  1   force =     0.00000000    0.00000000    0.00000000
     atom    2 type  1   force =     0.00000000    0.00000000    0.00000000
     The SCF correction term to forces
     atom    1 type  1   force =    -0.00000098    0.00000000   -0.00000000
     atom    2 type  1   force =    -0.00000013    0.00000000   -0.00000000

     Total force =     0.010077     Total SCF correction =     0.000001
     Energy error            =      2.0E-05 Ry
     Gradient error          =      7.1E-03 Ry/Bohr

     number of scf cycles    =   8
     number of bfgs steps    =   4

     energy             old  =      -2.3189771512 Ry
     energy             new  =      -2.3189573577 Ry

     CASE: energy            _new > energy            _old

     new trust radius        =       0.0008687117 bohr
     new conv_thr            =       0.0000000001 Ry


ATOMIC_POSITIONS (angstrom)
H             0.1214133922        0.0000000000        0.0000000000
H             0.8785866078        0.0000000000        0.0000000000



     Writing config-only to output data dir ./.save/
     NEW-OLD atomic charge density approx. for the potential

     negative rho (up, down):  2.139E-02 0.000E+00

     total cpu time spent up to now is       50.3 secs

     Self-consistent Calculation

     iteration #  1     ecut=    30.00 Ry     beta= 0.70
     Davidson diagonalization with overlap

---- Real-time Memory Report at c_bands before calling an iterative solver
           489 MiB given to the printing process from OS
             0 MiB allocation reported by mallinfo(arena+hblkhd)
           333 MiB available memory on the node where the printing process lives
------------------
     ethr =  1.00E-06,  avg # of iterations =  2.0

     Threshold (ethr) on eigenvalues was too large:
     Diagonalizing with lowered threshold

     Davidson diagonalization with overlap

---- Real-time Memory Report at c_bands before calling an iterative solver
           489 MiB given to the printing process from OS
             0 MiB allocation reported by mallinfo(arena+hblkhd)
           299 MiB available memory on the node where the printing process lives
------------------
     ethr =  3.50E-08,  avg # of iterations =  1.0

     negative rho (up, down):  2.135E-02 0.000E+00

     total cpu time spent up to now is       51.8 secs

     total energy              =      -2.31897040 Ry
     estimated scf accuracy    <       0.00000074 Ry

     iteration #  2     ecut=    30.00 Ry     beta= 0.70
     Davidson diagonalization with overlap

---- Real-time Memory Report at c_bands before calling an iterative solver
           489 MiB given to the printing process from OS
             0 MiB allocation reported by mallinfo(arena+hblkhd)
           152 MiB available memory on the node where the printing process lives
------------------
     ethr =  3.71E-08,  avg # of iterations =  1.0

     negative rho (up, down):  2.134E-02 0.000E+00

     total cpu time spent up to now is       52.8 secs

     total energy              =      -2.31897415 Ry
     estimated scf accuracy    <       0.00000001 Ry

     iteration #  3     ecut=    30.00 Ry     beta= 0.70
     Davidson diagonalization with overlap

---- Real-time Memory Report at c_bands before calling an iterative solver
           489 MiB given to the printing process from OS
             0 MiB allocation reported by mallinfo(arena+hblkhd)
           134 MiB available memory on the node where the printing process lives
------------------
     ethr =  5.48E-10,  avg # of iterations =  2.0

     negative rho (up, down):  2.134E-02 0.000E+00

     total cpu time spent up to now is       54.0 secs

     total energy              =      -2.31897455 Ry
     estimated scf accuracy    <          8.3E-10 Ry

     iteration #  4     ecut=    30.00 Ry     beta= 0.70
     Davidson diagonalization with overlap

---- Real-time Memory Report at c_bands before calling an iterative solver
           489 MiB given to the printing process from OS
             0 MiB allocation reported by mallinfo(arena+hblkhd)
           115 MiB available memory on the node where the printing process lives
------------------
     ethr =  4.16E-11,  avg # of iterations =  2.0

     negative rho (up, down):  2.134E-02 0.000E+00

     total cpu time spent up to now is       55.3 secs

     total energy              =      -2.31897384 Ry
     estimated scf accuracy    <          1.7E-10 Ry

     iteration #  5     ecut=    30.00 Ry     beta= 0.70
     Davidson diagonalization with overlap

---- Real-time Memory Report at c_bands before calling an iterative solver
           489 MiB given to the printing process from OS
             0 MiB allocation reported by mallinfo(arena+hblkhd)
            97 MiB available memory on the node where the printing process lives
------------------
     ethr =  8.38E-12,  avg # of iterations =  2.0

     negative rho (up, down):  2.134E-02 0.000E+00

     total cpu time spent up to now is       56.3 secs

     End of self-consistent calculation

          k =-0.5000-0.5000-0.5000 ( 74736 PWs)   bands (ev):

   -10.2754  -0.6134

     occupation numbers 
     1.0000   0.0000

     highest occupied, lowest unoccupied level (ev):   -10.2754   -0.6134

!    total energy              =      -2.31897527 Ry
     estimated scf accuracy    <          2.1E-12 Ry

     The total energy is the sum of the following terms:
     one-electron contribution =      -4.18514680 Ry
     hartree contribution      =       2.22158171 Ry
     xc contribution           =      -1.37519308 Ry
     ewald contribution        =       1.01978289 Ry

     convergence has been achieved in   5 iterations

     Forces acting on atoms (cartesian axes, Ry/au):

     atom    1 type  1   force =     0.00931367    0.00000000    0.00000000
     atom    2 type  1   force =    -0.00931367    0.00000000    0.00000000
     The non-local contrib.  to forces
     atom    1 type  1   force =     0.10428506    0.00000000    0.00000000
     atom    2 type  1   force =    -0.10423901    0.00000000    0.00000000
     The ionic contribution  to forces
     atom    1 type  1   force =    -0.97643429   -0.00000000   -0.00000000
     atom    2 type  1   force =     0.97643429    0.00000000   -0.00000000
     The local contribution  to forces
     atom    1 type  1   force =     0.88148424    0.00000000    0.00000000
     atom    2 type  1   force =    -0.88149044    0.00000000    0.00000000
     The core correction contribution to forces
     atom    1 type  1   force =     0.00000000    0.00000000    0.00000000
     atom    2 type  1   force =     0.00000000    0.00000000    0.00000000
     The Hubbard contrib.    to forces
     atom    1 type  1   force =     0.00000000    0.00000000    0.00000000
     atom    2 type  1   force =     0.00000000    0.00000000    0.00000000
     The SCF correction term to forces
     atom    1 type  1   force =    -0.00000709   -0.00000000   -0.00000000
     atom    2 type  1   force =    -0.00000425   -0.00000000   -0.00000000

     Total force =     0.013172     Total SCF correction =     0.000008
     Energy error            =      1.9E-06 Ry
     Gradient error          =      9.3E-03 Ry/Bohr

     number of scf cycles    =   9
     number of bfgs steps    =   4

     energy             old  =      -2.3189771512 Ry
     energy             new  =      -2.3189752730 Ry

     CASE: energy            _new > energy            _old

     new trust radius        =       0.0003940883 bohr
     new conv_thr            =       0.0000000001 Ry


ATOMIC_POSITIONS (angstrom)
H             0.1211622323        0.0000000000        0.0000000000
H             0.8788377677        0.0000000000        0.0000000000



     Writing config-only to output data dir ./.save/
     NEW-OLD atomic charge density approx. for the potential

     negative rho (up, down):  2.134E-02 0.000E+00

     total cpu time spent up to now is       57.4 secs

     Self-consistent Calculation

     iteration #  1     ecut=    30.00 Ry     beta= 0.70
     Davidson diagonalization with overlap

---- Real-time Memory Report at c_bands before calling an iterative solver
           489 MiB given to the printing process from OS
             0 MiB allocation reported by mallinfo(arena+hblkhd)
           333 MiB available memory on the node where the printing process lives
------------------
     ethr =  1.00E-06,  avg # of iterations =  2.0

     Threshold (ethr) on eigenvalues was too large:
     Diagonalizing with lowered threshold

     Davidson diagonalization with overlap

---- Real-time Memory Report at c_bands before calling an iterative solver
           489 MiB given to the printing process from OS
             0 MiB allocation reported by mallinfo(arena+hblkhd)
           299 MiB available memory on the node where the printing process lives
------------------
     ethr =  3.26E-09,  avg # of iterations =  1.0

     negative rho (up, down):  2.133E-02 0.000E+00

     total cpu time spent up to now is       58.8 secs

     total energy              =      -2.31897042 Ry
     estimated scf accuracy    <       0.00000007 Ry

     iteration #  2     ecut=    30.00 Ry     beta= 0.70
     Davidson diagonalization with overlap

---- Real-time Memory Report at c_bands before calling an iterative solver
           489 MiB given to the printing process from OS
             0 MiB allocation reported by mallinfo(arena+hblkhd)
           152 MiB available memory on the node where the printing process lives
------------------
     ethr =  3.45E-09,  avg # of iterations =  2.0

     negative rho (up, down):  2.132E-02 0.000E+00

     total cpu time spent up to now is       59.9 secs

     total energy              =      -2.31897207 Ry
     estimated scf accuracy    <          9.3E-10 Ry

     iteration #  3     ecut=    30.00 Ry     beta= 0.70
     Davidson diagonalization with overlap

---- Real-time Memory Report at c_bands before calling an iterative solver
           489 MiB given to the printing process from OS
             0 MiB allocation reported by mallinfo(arena+hblkhd)
           134 MiB available memory on the node where the printing process lives
------------------
     ethr =  4.65E-11,  avg # of iterations =  2.0

     negative rho (up, down):  2.132E-02 0.000E+00

     total cpu time spent up to now is       60.9 secs

     End of self-consistent calculation

          k =-0.5000-0.5000-0.5000 ( 74736 PWs)   bands (ev):

   -10.2729  -0.6117

     occupation numbers 
     1.0000   0.0000

     highest occupied, lowest unoccupied level (ev):   -10.2729   -0.6117

!    total energy              =      -2.31897179 Ry
     estimated scf accuracy    <          7.4E-11 Ry

     The total energy is the sum of the following terms:
     one-electron contribution =      -4.18387626 Ry
     hartree contribution      =       2.22092395 Ry
     xc contribution           =      -1.37487611 Ry
     ewald contribution        =       1.01885663 Ry

     convergence has been achieved in   3 iterations

     Forces acting on atoms (cartesian axes, Ry/au):

     atom    1 type  1   force =     0.01001413    0.00000000    0.00000000
     atom    2 type  1   force =    -0.01001413    0.00000000    0.00000000
     The non-local contrib.  to forces
     atom    1 type  1   force =     0.10421950    0.00000000    0.00000000
     atom    2 type  1   force =    -0.10413479    0.00000000    0.00000000
     The ionic contribution  to forces
     atom    1 type  1   force =    -0.97513912    0.00000000   -0.00000000
     atom    2 type  1   force =     0.97513912    0.00000000   -0.00000000
     The local contribution  to forces
     atom    1 type  1   force =     0.88097613    0.00000000    0.00000000
     atom    2 type  1   force =    -0.88098172    0.00000000    0.00000000
     The core correction contribution to forces
     atom    1 type  1   force =     0.00000000    0.00000000    0.00000000
     atom    2 type  1   force =     0.00000000    0.00000000    0.00000000
     The Hubbard contrib.    to forces
     atom    1 type  1   force =     0.00000000    0.00000000    0.00000000
     atom    2 type  1   force =     0.00000000    0.00000000    0.00000000
     The SCF correction term to forces
     atom    1 type  1   force =    -0.00000275   -0.00000000   -0.00000000
     atom    2 type  1   force =     0.00000288   -0.00000000   -0.00000000

     Total force =     0.014162     Total SCF correction =     0.000004
     Energy error            =      5.4E-06 Ry
     Gradient error          =      1.0E-02 Ry/Bohr

     number of scf cycles    =  10
     number of bfgs steps    =   4

     energy             old  =      -2.3189771512 Ry
     energy             new  =      -2.3189717889 Ry

     CASE: energy            _new > energy            _old

     new trust radius        =       0.0001199244 bohr
     new conv_thr            =       0.0000000001 Ry


ATOMIC_POSITIONS (angstrom)
H             0.1210171510        0.0000000000        0.0000000000
H             0.8789828490        0.0000000000        0.0000000000



     Writing config-only to output data dir ./.save/
     NEW-OLD atomic charge density approx. for the potential

     negative rho (up, down):  2.132E-02 0.000E+00

     total cpu time spent up to now is       62.0 secs

     Self-consistent Calculation

     iteration #  1     ecut=    30.00 Ry     beta= 0.70
     Davidson diagonalization with overlap

---- Real-time Memory Report at c_bands before calling an iterative solver
           489 MiB given to the printing process from OS
             0 MiB allocation reported by mallinfo(arena+hblkhd)
           333 MiB available memory on the node where the printing process lives
------------------
     ethr =  1.00E-06,  avg # of iterations =  2.0

     Threshold (ethr) on eigenvalues was too large:
     Diagonalizing with lowered threshold

     Davidson diagonalization with overlap

---- Real-time Memory Report at c_bands before calling an iterative solver
           489 MiB given to the printing process from OS
             0 MiB allocation reported by mallinfo(arena+hblkhd)
           299 MiB available memory on the node where the printing process lives
------------------
     ethr =  1.14E-09,  avg # of iterations =  1.0

     negative rho (up, down):  2.131E-02 0.000E+00

     total cpu time spent up to now is       63.5 secs

     total energy              =      -2.31897384 Ry
     estimated scf accuracy    <       0.00000002 Ry

     iteration #  2     ecut=    30.00 Ry     beta= 0.70
     Davidson diagonalization with overlap

---- Real-time Memory Report at c_bands before calling an iterative solver
           489 MiB given to the printing process from OS
             0 MiB allocation reported by mallinfo(arena+hblkhd)
           152 MiB available memory on the node where the printing process lives
------------------
     ethr =  1.21E-09,  avg # of iterations =  2.0

     negative rho (up, down):  2.131E-02 0.000E+00

     total cpu time spent up to now is       64.7 secs

     total energy              =      -2.31897180 Ry
     estimated scf accuracy    <          2.6E-10 Ry

     iteration #  3     ecut=    30.00 Ry     beta= 0.70
     Davidson diagonalization with overlap

---- Real-time Memory Report at c_bands before calling an iterative solver
           489 MiB given to the printing process from OS
             0 MiB allocation reported by mallinfo(arena+hblkhd)
           134 MiB available memory on the node where the printing process lives
------------------
     ethr =  1.28E-11,  avg # of iterations =  3.0

     negative rho (up, down):  2.131E-02 0.000E+00

     total cpu time spent up to now is       65.7 secs

     End of self-consistent calculation

          k =-0.5000-0.5000-0.5000 ( 74736 PWs)   bands (ev):

   -10.2714  -0.6117

     occupation numbers 
     1.0000   0.0000

     highest occupied, lowest unoccupied level (ev):   -10.2714   -0.6117

!    total energy              =      -2.31897413 Ry
     estimated scf accuracy    <          1.8E-11 Ry

     The total energy is the sum of the following terms:
     one-electron contribution =      -4.18313417 Ry
     hartree contribution      =       2.22052835 Ry
     xc contribution           =      -1.37469046 Ry
     ewald contribution        =       1.01832214 Ry

     convergence has been achieved in   3 iterations

     Forces acting on atoms (cartesian axes, Ry/au):

     atom    1 type  1   force =     0.01040549    0.00000000    0.00000000
     atom    2 type  1   force =    -0.01040549    0.00000000    0.00000000
     The non-local contrib.  to forces
     atom    1 type  1   force =     0.10415928    0.00000000    0.00000000
     atom    2 type  1   force =    -0.10408379    0.00000000    0.00000000
     The ionic contribution  to forces
     atom    1 type  1   force =    -0.97439215   -0.00000000   -0.00000000
     atom    2 type  1   force =     0.97439215    0.00000000   -0.00000000
     The local contribution  to forces
     atom    1 type  1   force =     0.88067644    0.00000000    0.00000000
     atom    2 type  1   force =    -0.88068152    0.00000000    0.00000000
     The core correction contribution to forces
     atom    1 type  1   force =     0.00000000    0.00000000    0.00000000
     atom    2 type  1   force =     0.00000000    0.00000000    0.00000000
     The Hubbard contrib.    to forces
     atom    1 type  1   force =     0.00000000    0.00000000    0.00000000
     atom    2 type  1   force =     0.00000000    0.00000000    0.00000000
     The SCF correction term to forces
     atom    1 type  1   force =    -0.00000698    0.00000000   -0.00000000
     atom    2 type  1   force =    -0.00000122    0.00000000    0.00000000

     Total force =     0.014716     Total SCF correction =     0.000007
     Energy error            =      3.0E-06 Ry
     Gradient error          =      1.0E-02 Ry/Bohr

     number of scf cycles    =  11
     number of bfgs steps    =   4

     energy             old  =      -2.3189771512 Ry
     energy             new  =      -2.3189741330 Ry

     CASE: energy            _new > energy            _old

     new trust radius        =       0.0000273870 bohr

     trust_radius < trust_radius_min

     resetting bfgs history

     new conv_thr            =       0.0000000001 Ry


ATOMIC_POSITIONS (angstrom)
H             0.1265521516        0.0000000000        0.0000000000
H             0.8734478484        0.0000000000        0.0000000000



     Writing config-only to output data dir ./.save/
     NEW-OLD atomic charge density approx. for the potential

     negative rho (up, down):  2.146E-02 0.000E+00

     total cpu time spent up to now is       66.8 secs

     Self-consistent Calculation

     iteration #  1     ecut=    30.00 Ry     beta= 0.70
     Davidson diagonalization with overlap

---- Real-time Memory Report at c_bands before calling an iterative solver
           489 MiB given to the printing process from OS
             0 MiB allocation reported by mallinfo(arena+hblkhd)
           333 MiB available memory on the node where the printing process lives
------------------
     ethr =  1.00E-06,  avg # of iterations =  3.0

     negative rho (up, down):  2.172E-02 0.000E+00

     total cpu time spent up to now is       68.0 secs

     total energy              =      -2.31882972 Ry
     estimated scf accuracy    <       0.00003494 Ry

     iteration #  2     ecut=    30.00 Ry     beta= 0.70
     Davidson diagonalization with overlap

---- Real-time Memory Report at c_bands before calling an iterative solver
           489 MiB given to the printing process from OS
             0 MiB allocation reported by mallinfo(arena+hblkhd)
           152 MiB available memory on the node where the printing process lives
------------------
     ethr =  1.75E-06,  avg # of iterations =  2.0

     negative rho (up, down):  2.178E-02 0.000E+00

     total cpu time spent up to now is       69.1 secs

     total energy              =      -2.31879922 Ry
     estimated scf accuracy    <       0.00000040 Ry

     iteration #  3     ecut=    30.00 Ry     beta= 0.70
     Davidson diagonalization with overlap

---- Real-time Memory Report at c_bands before calling an iterative solver
           489 MiB given to the printing process from OS
             0 MiB allocation reported by mallinfo(arena+hblkhd)
           134 MiB available memory on the node where the printing process lives
------------------
     ethr =  2.00E-08,  avg # of iterations =  2.0

     negative rho (up, down):  2.179E-02 0.000E+00

     total cpu time spent up to now is       70.2 secs

     total energy              =      -2.31879409 Ry
     estimated scf accuracy    <       0.00000002 Ry

     iteration #  4     ecut=    30.00 Ry     beta= 0.70
     Davidson diagonalization with overlap

---- Real-time Memory Report at c_bands before calling an iterative solver
           489 MiB given to the printing process from OS
             0 MiB allocation reported by mallinfo(arena+hblkhd)
           115 MiB available memory on the node where the printing process lives
------------------
     ethr =  8.82E-10,  avg # of iterations =  2.0

     negative rho (up, down):  2.179E-02 0.000E+00

     total cpu time spent up to now is       71.2 secs

     End of self-consistent calculation

          k =-0.5000-0.5000-0.5000 ( 74736 PWs)   bands (ev):

   -10.3261  -0.6379

     occupation numbers 
     1.0000   0.0000

     highest occupied, lowest unoccupied level (ev):   -10.3261   -0.6379

!    total energy              =      -2.31879362 Ry
     estimated scf accuracy    <          9.5E-11 Ry

     The total energy is the sum of the following terms:
     one-electron contribution =      -4.21147582 Ry
     hartree contribution      =       2.23543413 Ry
     xc contribution           =      -1.38175996 Ry
     ewald contribution        =       1.03900803 Ry

     convergence has been achieved in   4 iterations

     Forces acting on atoms (cartesian axes, Ry/au):

     atom    1 type  1   force =    -0.00495513    0.00000000    0.00000000
     atom    2 type  1   force =     0.00495513    0.00000000    0.00000000
     The non-local contrib.  to forces
     atom    1 type  1   force =     0.10655478    0.00000000    0.00000000
     atom    2 type  1   force =    -0.10644747    0.00000000    0.00000000
     The ionic contribution  to forces
     atom    1 type  1   force =    -1.00350979    0.00000000   -0.00000000
     atom    2 type  1   force =     1.00350979   -0.00000000   -0.00000000
     The local contribution  to forces
     atom    1 type  1   force =     0.89204904    0.00000000    0.00000000
     atom    2 type  1   force =    -0.89206629    0.00000000    0.00000000
     The core correction contribution to forces
     atom    1 type  1   force =     0.00000000    0.00000000    0.00000000
     atom    2 type  1   force =     0.00000000    0.00000000    0.00000000
     The Hubbard contrib.    to forces
     atom    1 type  1   force =     0.00000000    0.00000000    0.00000000
     atom    2 type  1   force =     0.00000000    0.00000000    0.00000000
     The SCF correction term to forces
     atom    1 type  1   force =    -0.00000552    0.00000000   -0.00000000
     atom    2 type  1   force =     0.00000273    0.00000000   -0.00000000

     Total force =     0.007008     Total SCF correction =     0.000006
     Energy error            =      1.8E-04 Ry
     Gradient error          =      5.0E-03 Ry/Bohr

     number of scf cycles    =  12
     number of bfgs steps    =   4

     energy             old  =      -2.3189771512 Ry
     energy             new  =      -2.3187936168 Ry

     CASE: energy            _new > energy            _old

     new trust radius        =       0.0029066578 bohr
     new conv_thr            =       0.0000000001 Ry


ATOMIC_POSITIONS (angstrom)
H             0.1224918268        0.0000000000        0.0000000000
H             0.8775081732        0.0000000000        0.0000000000



     Writing config-only to output data dir ./.save/
     NEW-OLD atomic charge density approx. for the potential

     negative rho (up, down):  2.167E-02 0.000E+00

[...]
------------------
     ethr =  9.48E-07,  avg # of iterations =  1.0

     negative rho (up, down):  2.144E-02 0.000E+00

     total cpu time spent up to now is      272.8 secs

     total energy              =      -2.31895048 Ry
     estimated scf accuracy    <       0.00000022 Ry

     iteration #  3     ecut=    30.00 Ry     beta= 0.70
     Davidson diagonalization with overlap

---- Real-time Memory Report at c_bands before calling an iterative solver
           490 MiB given to the printing process from OS
             0 MiB allocation reported by mallinfo(arena+hblkhd)
           156 MiB available memory on the node where the printing process lives
------------------
     ethr =  1.12E-08,  avg # of iterations =  2.0

     negative rho (up, down):  2.144E-02 0.000E+00

     total cpu time spent up to now is      273.9 secs

     total energy              =      -2.31895395 Ry
     estimated scf accuracy    <          9.6E-09 Ry

     iteration #  4     ecut=    30.00 Ry     beta= 0.70
     Davidson diagonalization with overlap

---- Real-time Memory Report at c_bands before calling an iterative solver
           490 MiB given to the printing process from OS
             0 MiB allocation reported by mallinfo(arena+hblkhd)
           138 MiB available memory on the node where the printing process lives
------------------
     ethr =  4.82E-10,  avg # of iterations =  2.0

     negative rho (up, down):  2.144E-02 0.000E+00

     total cpu time spent up to now is      274.9 secs

     End of self-consistent calculation

          k =-0.5000-0.5000-0.5000 ( 74736 PWs)   bands (ev):

   -10.2860  -0.6230

     occupation numbers 
     1.0000   0.0000

     highest occupied, lowest unoccupied level (ev):   -10.2860   -0.6230

!    total energy              =      -2.31895354 Ry
     estimated scf accuracy    <          5.5E-11 Ry

     The total energy is the sum of the following terms:
     one-electron contribution =      -4.19063626 Ry
     hartree contribution      =       2.22445692 Ry
     xc contribution           =      -1.37654837 Ry
     ewald contribution        =       1.02377418 Ry

     convergence has been achieved in   4 iterations

     Forces acting on atoms (cartesian axes, Ry/au):

     atom    1 type  1   force =     0.00641589    0.00000000    0.00000000
     atom    2 type  1   force =    -0.00641589    0.00000000    0.00000000
     The non-local contrib.  to forces
     atom    1 type  1   force =     0.10478640    0.00000000    0.00000000
     atom    2 type  1   force =    -0.10470768    0.00000000    0.00000000
     The ionic contribution  to forces
     atom    1 type  1   force =    -0.98202499   -0.00000000   -0.00000000
     atom    2 type  1   force =     0.98202499    0.00000000   -0.00000000
     The local contribution  to forces
     atom    1 type  1   force =     0.88368563    0.00000000    0.00000000
     atom    2 type  1   force =    -0.88369646    0.00000000    0.00000000
     The core correction contribution to forces
     atom    1 type  1   force =     0.00000000    0.00000000    0.00000000
     atom    2 type  1   force =     0.00000000    0.00000000    0.00000000
     The Hubbard contrib.    to forces
     atom    1 type  1   force =     0.00000000    0.00000000    0.00000000
     atom    2 type  1   force =     0.00000000    0.00000000    0.00000000
     The SCF correction term to forces
     atom    1 type  1   force =     0.00000690    0.00000000   -0.00000000
     atom    2 type  1   force =     0.00000128    0.00000000    0.00000000

     Total force =     0.009073     Total SCF correction =     0.000007
     Energy error            =      2.4E-05 Ry
     Gradient error          =      6.4E-03 Ry/Bohr

     number of scf cycles    =  48
     number of bfgs steps    =   4

     energy             old  =      -2.3189771512 Ry
     energy             new  =      -2.3189535421 Ry

     CASE: energy            _new > energy            _old

     new trust radius        =       0.0010502043 bohr
     new conv_thr            =       0.0000000001 Ry


ATOMIC_POSITIONS (angstrom)
H             0.1215094339        0.0000000000        0.0000000000
H             0.8784905661        0.0000000000        0.0000000000



     Writing config-only to output data dir ./.save/
     NEW-OLD atomic charge density approx. for the potential

     negative rho (up, down):  2.141E-02 0.000E+00

     total cpu time spent up to now is      276.0 secs

     Self-consistent Calculation

     iteration #  1     ecut=    30.00 Ry     beta= 0.70
     Davidson diagonalization with overlap

---- Real-time Memory Report at c_bands before calling an iterative solver
           490 MiB given to the printing process from OS
             0 MiB allocation reported by mallinfo(arena+hblkhd)
           355 MiB available memory on the node where the printing process lives
------------------
     ethr =  1.00E-06,  avg # of iterations =  2.0

     Threshold (ethr) on eigenvalues was too large:
     Diagonalizing with lowered threshold

     Davidson diagonalization with overlap

---- Real-time Memory Report at c_bands before calling an iterative solver
           490 MiB given to the printing process from OS
             0 MiB allocation reported by mallinfo(arena+hblkhd)
           322 MiB available memory on the node where the printing process lives
------------------
     ethr =  5.07E-08,  avg # of iterations =  1.0

     negative rho (up, down):  2.136E-02 0.000E+00

     total cpu time spent up to now is      277.5 secs

     total energy              =      -2.31896866 Ry
     estimated scf accuracy    <       0.00000107 Ry

     iteration #  2     ecut=    30.00 Ry     beta= 0.70
     Davidson diagonalization with overlap

---- Real-time Memory Report at c_bands before calling an iterative solver
           490 MiB given to the printing process from OS
             0 MiB allocation reported by mallinfo(arena+hblkhd)
           174 MiB available memory on the node where the printing process lives
------------------
     ethr =  5.37E-08,  avg # of iterations =  1.0

     negative rho (up, down):  2.135E-02 0.000E+00

     total cpu time spent up to now is      278.5 secs

     total energy              =      -2.31897381 Ry
     estimated scf accuracy    <       0.00000001 Ry

     iteration #  3     ecut=    30.00 Ry     beta= 0.70
     Davidson diagonalization with overlap

---- Real-time Memory Report at c_bands before calling an iterative solver
           490 MiB given to the printing process from OS
             0 MiB allocation reported by mallinfo(arena+hblkhd)
           155 MiB available memory on the node where the printing process lives
------------------
     ethr =  7.36E-10,  avg # of iterations =  2.0

     negative rho (up, down):  2.135E-02 0.000E+00

     total cpu time spent up to now is      279.6 secs

     total energy              =      -2.31897403 Ry
     estimated scf accuracy    <          8.3E-10 Ry

     iteration #  4     ecut=    30.00 Ry     beta= 0.70
     Davidson diagonalization with overlap

---- Real-time Memory Report at c_bands before calling an iterative solver
           490 MiB given to the printing process from OS
             0 MiB allocation reported by mallinfo(arena+hblkhd)
           137 MiB available memory on the node where the printing process lives
------------------
     ethr =  4.13E-11,  avg # of iterations =  2.0

     negative rho (up, down):  2.135E-02 0.000E+00

     total cpu time spent up to now is      280.5 secs

     End of self-consistent calculation

          k =-0.5000-0.5000-0.5000 ( 74736 PWs)   bands (ev):

   -10.2763  -0.6193

     occupation numbers 
     1.0000   0.0000

     highest occupied, lowest unoccupied level (ev):   -10.2763   -0.6193

!    total energy              =      -2.31897401 Ry
     estimated scf accuracy    <          7.4E-11 Ry

     The total energy is the sum of the following terms:
     one-electron contribution =      -4.18563295 Ry
     hartree contribution      =       2.22183337 Ry
     xc contribution           =      -1.37531184 Ry
     ewald contribution        =       1.02013741 Ry

     convergence has been achieved in   4 iterations

     Forces acting on atoms (cartesian axes, Ry/au):

     atom    1 type  1   force =     0.00906909    0.00000000    0.00000000
     atom    2 type  1   force =    -0.00906909    0.00000000    0.00000000
     The non-local contrib.  to forces
     atom    1 type  1   force =     0.10434003    0.00000000    0.00000000
     atom    2 type  1   force =    -0.10428682    0.00000000    0.00000000
     The ionic contribution  to forces
     atom    1 type  1   force =    -0.97693023   -0.00000000   -0.00000000
     atom    2 type  1   force =     0.97693023    0.00000000   -0.00000000
     The local contribution  to forces
     atom    1 type  1   force =     0.88167787    0.00000000    0.00000000
     atom    2 type  1   force =    -0.88168454    0.00000000    0.00000000
     The core correction contribution to forces
     atom    1 type  1   force =     0.00000000    0.00000000    0.00000000
     atom    2 type  1   force =     0.00000000    0.00000000    0.00000000
     The Hubbard contrib.    to forces
     atom    1 type  1   force =     0.00000000    0.00000000    0.00000000
     atom    2 type  1   force =     0.00000000    0.00000000    0.00000000
     The SCF correction term to forces
     atom    1 type  1   force =     0.00001080    0.00000000    0.00000000
     atom    2 type  1   force =     0.00000140   -0.00000000    0.00000000

     Total force =     0.012826     Total SCF correction =     0.000011
     Energy error            =      3.1E-06 Ry
     Gradient error          =      9.1E-03 Ry/Bohr

     number of scf cycles    =  49
     number of bfgs steps    =   4

     energy             old  =      -2.3189771512 Ry
     energy             new  =      -2.3189740071 Ry

     CASE: energy            _new > energy            _old

     new trust radius        =       0.0004600137 bohr
     new conv_thr            =       0.0000000001 Ry


ATOMIC_POSITIONS (angstrom)
H             0.1211971185        0.0000000000        0.0000000000
H             0.8788028815        0.0000000000        0.0000000000



     Writing config-only to output data dir ./.save/
     NEW-OLD atomic charge density approx. for the potential

     negative rho (up, down):  2.134E-02 0.000E+00

     total cpu time spent up to now is      281.6 secs

     Self-consistent Calculation

     iteration #  1     ecut=    30.00 Ry     beta= 0.70
     Davidson diagonalization with overlap

---- Real-time Memory Report at c_bands before calling an iterative solver
           490 MiB given to the printing process from OS
             0 MiB allocation reported by mallinfo(arena+hblkhd)
           355 MiB available memory on the node where the printing process lives
------------------
     ethr =  1.00E-06,  avg # of iterations =  2.0

     Threshold (ethr) on eigenvalues was too large:
     Diagonalizing with lowered threshold

     Davidson diagonalization with overlap

---- Real-time Memory Report at c_bands before calling an iterative solver
           490 MiB given to the printing process from OS
             0 MiB allocation reported by mallinfo(arena+hblkhd)
           321 MiB available memory on the node where the printing process lives
------------------
     ethr =  4.93E-09,  avg # of iterations =  1.0

     negative rho (up, down):  2.133E-02 0.000E+00

     total cpu time spent up to now is      283.0 secs

     total energy              =      -2.31896876 Ry
     estimated scf accuracy    <       0.00000010 Ry

     iteration #  2     ecut=    30.00 Ry     beta= 0.70
     Davidson diagonalization with overlap

---- Real-time Memory Report at c_bands before calling an iterative solver
           490 MiB given to the printing process from OS
             0 MiB allocation reported by mallinfo(arena+hblkhd)
           174 MiB available memory on the node where the printing process lives
------------------
     ethr =  5.25E-09,  avg # of iterations =  1.0

     negative rho (up, down):  2.133E-02 0.000E+00

     total cpu time spent up to now is      284.0 secs

     total energy              =      -2.31897217 Ry
     estimated scf accuracy    <          1.7E-09 Ry

     iteration #  3     ecut=    30.00 Ry     beta= 0.70
     Davidson diagonalization with overlap

---- Real-time Memory Report at c_bands before calling an iterative solver
           490 MiB given to the printing process from OS
             0 MiB allocation reported by mallinfo(arena+hblkhd)
           156 MiB available memory on the node where the printing process lives
------------------
     ethr =  8.45E-11,  avg # of iterations =  2.0

     negative rho (up, down):  2.133E-02 0.000E+00

     total cpu time spent up to now is      285.1 secs

     total energy              =      -2.31897079 Ry
     estimated scf accuracy    <          1.4E-10 Ry

     iteration #  4     ecut=    30.00 Ry     beta= 0.70
     Davidson diagonalization with overlap

---- Real-time Memory Report at c_bands before calling an iterative solver
           490 MiB given to the printing process from OS
             0 MiB allocation reported by mallinfo(arena+hblkhd)
           137 MiB available memory on the node where the printing process lives
------------------
     ethr =  7.08E-12,  avg # of iterations =  3.0

     negative rho (up, down):  2.133E-02 0.000E+00

     total cpu time spent up to now is      286.2 secs

     End of self-consistent calculation

          k =-0.5000-0.5000-0.5000 ( 74736 PWs)   bands (ev):

   -10.2732  -0.6178

     occupation numbers 
     1.0000   0.0000

     highest occupied, lowest unoccupied level (ev):   -10.2732   -0.6178

!    total energy              =      -2.31897231 Ry
     estimated scf accuracy    <          6.2E-11 Ry

     The total energy is the sum of the following terms:
     one-electron contribution =      -4.18404573 Ry
     hartree contribution      =       2.22100211 Ry
     xc contribution           =      -1.37491391 Ry
     ewald contribution        =       1.01898522 Ry

     convergence has been achieved in   4 iterations

     Forces acting on atoms (cartesian axes, Ry/au):

     atom    1 type  1   force =     0.00990950    0.00000000    0.00000000
     atom    2 type  1   force =    -0.00990950    0.00000000    0.00000000
     The non-local contrib.  to forces
     atom    1 type  1   force =     0.10422229    0.00000000    0.00000000
     atom    2 type  1   force =    -0.10414766    0.00000000    0.00000000
     The ionic contribution  to forces
     atom    1 type  1   force =    -0.97531887   -0.00000000   -0.00000000
     atom    2 type  1   force =     0.97531887   -0.00000000   -0.00000000
     The local contribution  to forces
     atom    1 type  1   force =     0.88104017    0.00000000    0.00000000
     atom    2 type  1   force =    -0.88104660    0.00000000    0.00000000
     The core correction contribution to forces
     atom    1 type  1   force =     0.00000000    0.00000000    0.00000000
     atom    2 type  1   force =     0.00000000    0.00000000    0.00000000
     The Hubbard contrib.    to forces
     atom    1 type  1   force =     0.00000000    0.00000000    0.00000000
     atom    2 type  1   force =     0.00000000    0.00000000    0.00000000
     The SCF correction term to forces
     atom    1 type  1   force =    -0.00000551   -0.00000000   -0.00000000
     atom    2 type  1   force =    -0.00000553   -0.00000000   -0.00000000

     Total force =     0.014014     Total SCF correction =     0.000008
     Energy error            =      4.8E-06 Ry
     Gradient error          =      9.9E-03 Ry/Bohr

     number of scf cycles    =  50
     number of bfgs steps    =   4

     energy             old  =      -2.3189771512 Ry
     energy             new  =      -2.3189723144 Ry

     CASE: energy            _new > energy            _old

     new trust radius        =       0.0001536532 bohr

     The maximum number of steps has been reached.

     End of BFGS Geometry Optimization

ATOMIC_POSITIONS (angstrom)
H             0.1210349995        0.0000000000        0.0000000000
H             0.8789650005        0.0000000000        0.0000000000



     Writing config-only to output data dir ./.save/
     NEW-OLD atomic charge density approx. for the potential

     negative rho (up, down):  2.132E-02 0.000E+00

     Writing all to output data dir ./.save/

     init_run     :      1.09s CPU      1.13s WALL (       1 calls)
     electrons    :    231.29s CPU    233.33s WALL (      50 calls)
     update_pot   :     33.35s CPU     34.00s WALL (      50 calls)
     forces       :     13.61s CPU     13.86s WALL (      50 calls)

     Called by init_run:
     wfcinit      :      0.12s CPU      0.12s WALL (       1 calls)
     wfcinit:atom :      0.00s CPU      0.00s WALL (       1 calls)
     wfcinit:wfcr :      0.10s CPU      0.10s WALL (       1 calls)
     potinit      :      0.63s CPU      0.65s WALL (       1 calls)
     hinit0       :      0.05s CPU      0.06s WALL (       1 calls)

     Called by electrons:
     c_bands      :     57.36s CPU     57.45s WALL (     229 calls)
     sum_band     :     34.57s CPU     34.72s WALL (     229 calls)
     v_of_rho     :    141.00s CPU    142.15s WALL (     254 calls)
     v_h          :      9.80s CPU      9.81s WALL (     254 calls)
     v_xc         :    131.20s CPU    132.34s WALL (     254 calls)
     newd         :     11.83s CPU     11.84s WALL (     254 calls)
     mix_rho      :     11.97s CPU     12.49s WALL (     229 calls)

     Called by c_bands:
     init_us_2    :      0.92s CPU      0.93s WALL (     459 calls)
     init_us_2:cp :      0.92s CPU      0.92s WALL (     459 calls)
     cegterg      :     56.75s CPU     56.84s WALL (     229 calls)

     Called by sum_band:
     sum_band:wei :      0.00s CPU      0.00s WALL (     229 calls)
     sum_band:loo :     10.74s CPU     10.74s WALL (     229 calls)
     sum_band:buf :      0.00s CPU      0.00s WALL (     229 calls)
     sum_band:ini :      0.48s CPU      0.48s WALL (     229 calls)
     sum_band:cal :      0.12s CPU      0.12s WALL (     229 calls)
     sum_band:bec :      0.00s CPU      0.00s WALL (     229 calls)
     addusdens    :      2.93s CPU      3.06s WALL (     229 calls)
     addusd:skk   :      0.81s CPU      0.88s WALL (     229 calls)
     addusd:dgemm :      0.65s CPU      0.68s WALL (     229 calls)
     addusd:qvan2 :      0.78s CPU      0.79s WALL (     229 calls)

     Called by *egterg:
     cdiaghg      :      0.01s CPU      0.01s WALL (     646 calls)
     cegterg:over :      0.64s CPU      0.64s WALL (     492 calls)
     cegterg:upda :      0.45s CPU      0.45s WALL (     492 calls)
     cegterg:last :      0.88s CPU      0.89s WALL (     448 calls)
     h_psi        :     53.77s CPU     53.84s WALL (     722 calls)
     s_psi        :      0.27s CPU      0.27s WALL (     722 calls)
     g_psi        :      0.19s CPU      0.19s WALL (     492 calls)

     Called by h_psi:
     h_psi:calbec :      0.35s CPU      0.35s WALL (     722 calls)
     vloc_psi     :     52.98s CPU     53.04s WALL (     722 calls)
     add_vuspsi   :      0.29s CPU      0.29s WALL (     722 calls)

     General routines
     calbec       :      0.55s CPU      0.56s WALL (    1151 calls)
     fft          :     88.83s CPU     88.94s WALL (    2970 calls)
     ffts         :      7.03s CPU      7.04s WALL (     229 calls)
     fftw         :     56.55s CPU     56.61s WALL (    2904 calls)


     PWSCF        :   4m44.31s CPU   4m47.34s WALL


   This run was terminated on:   1:13:28  28Feb2022            

=------------------------------------------------------------------------------=
   JOB DONE.
=------------------------------------------------------------------------------=
