
     Program PWSCF v.7.0 starts on 28Feb2022 at  3: 7: 8 

     This program is part of the open-source Quantum ESPRESSO suite
     for quantum simulation of materials; please cite
         "P. Giannozzi et al., J. Phys.:Condens. Matter 21 395502 (2009);
         "P. Giannozzi et al., J. Phys.:Condens. Matter 29 465901 (2017);
         "P. Giannozzi et al., J. Chem. Phys. 152 154105 (2020);
          URL http://www.quantum-espresso.org", 
     in publications or presentations arising from this work. More details at
     http://www.quantum-espresso.org/quote

     Serial version
     556 MiB available memory on the printing compute node when the environment starts

     Waiting for input...
     Reading input from standard input

     Current dimensions of program PWSCF are:
     Max number of different atomic species (ntypx) = 10
     Max number of k-points (npk) =  40000
     Max angular momentum in pseudopotentials (lmaxx) =  4

     File ./.update deleted, as requested

     File ./.bfgs deleted, as requested

    ============================================================
    |  pseudopotential report for atomic species:  1           |
    |        pseudo potential version   7   3   2              |
    ------------------------------------------------------------
    |  hydrogen            PBE                  exchange-corr  |
    |  z =   1.    zv( 1) =   1.    exfact =   5.00000         |
    |  ifpcor =  0           atomic energy =  -0.91772 Ry      |
    |  index    orbital      occupation    energy              |
    |    1        100           1.00       -0.48               |
    |  rinner =  0.5000                                        |
    |    new generation scheme:                                |
    |    nbeta =  1     kkbeta =  271     rcloc =    0.6000    |
    |    ibeta    l     epsilon   rcut                         |
    |      1       0      -0.48   0.80                         |
    ============================================================

     IMPORTANT: XC functional enforced from input :
     Exchange-correlation= BLYP
                           (   1   3   1   3   0   0   0)
     Any further DFT definition will be discarded
     Please, verify this is what you really want


     G-vector sticks info
     --------------------
     sticks:   dense  smooth     PW     G-vecs:    dense   smooth      PW
     Sum        4281    4281   1185               211657   211657   30551

     Using Slab Decomposition



     bravais-lattice index     =            1
     lattice parameter (alat)  =      30.0000  a.u.
     unit-cell volume          =   27000.0000 (a.u.)^3
     number of atoms/cell      =            2
     number of atomic types    =            1
     number of electrons       =         2.00
     number of Kohn-Sham states=            2
     kinetic-energy cutoff     =      15.0000  Ry
     charge density cutoff     =      60.0000  Ry
     scf convergence threshold =      1.0E-08
     mixing beta               =       0.7000
     number of iterations used =            8  plain     mixing
     energy convergence thresh.=      1.0E-04
     force convergence thresh. =      1.0E-03
     Exchange-correlation= BLYP
                           (   1   3   1   3   0   0   0)
     nstep                     =           50


     celldm(1)=  30.000000  celldm(2)=   0.000000  celldm(3)=   0.000000
     celldm(4)=   0.000000  celldm(5)=   0.000000  celldm(6)=   0.000000

     crystal axes: (cart. coord. in units of alat)
               a(1) = (   1.000000   0.000000   0.000000 )  
               a(2) = (   0.000000   1.000000   0.000000 )  
               a(3) = (   0.000000   0.000000   1.000000 )  

     reciprocal axes: (cart. coord. in units 2 pi/alat)
               b(1) = (  1.000000  0.000000  0.000000 )  
               b(2) = (  0.000000  1.000000  0.000000 )  
               b(3) = (  0.000000  0.000000  1.000000 )  


     PseudoPot. # 1 for hy read from file:
     /root/q-e/pseudo/H_US.van
     MD5 check sum: a9a9bfe98ff56cf4de197d71fc46bb44
     Pseudo is Ultrasoft, Zval =  1.0
     Generated by Vanderbilt code, v. 7.3.2
     Using radial grid of  399 points,  1 beta functions with: 
                l(1) =   0
     Q(r) pseudized with  8 coefficients,  rinner =    0.500

     atomic species   valence    mass     pseudopotential
        H              1.00     1.00784     hy( 1.00)

      8 Sym. Ops. (no inversion) found


                                    s                        frac. trans.

      isym =  1     identity                                     

 cryst.   s( 1) = (     1          0          0      )
                  (     0          1          0      )
                  (     0          0          1      )

 cart.    s( 1) = (  1.0000000  0.0000000  0.0000000 )
                  (  0.0000000  1.0000000  0.0000000 )
                  (  0.0000000  0.0000000  1.0000000 )


      isym =  2     180 deg rotation - cart. axis [1,0,0]        

 cryst.   s( 2) = (     1          0          0      )
                  (     0         -1          0      )
                  (     0          0         -1      )

 cart.    s( 2) = (  1.0000000  0.0000000  0.0000000 )
                  (  0.0000000 -1.0000000  0.0000000 )
                  (  0.0000000  0.0000000 -1.0000000 )


      isym =  3      90 deg rotation - cart. axis [-1,0,0]       

 cryst.   s( 3) = (     1          0          0      )
                  (     0          0         -1      )
                  (     0          1          0      )

 cart.    s( 3) = (  1.0000000  0.0000000  0.0000000 )
                  (  0.0000000  0.0000000  1.0000000 )
                  (  0.0000000 -1.0000000  0.0000000 )


      isym =  4      90 deg rotation - cart. axis [1,0,0]        

 cryst.   s( 4) = (     1          0          0      )
                  (     0          0          1      )
                  (     0         -1          0      )

 cart.    s( 4) = (  1.0000000  0.0000000  0.0000000 )
                  (  0.0000000  0.0000000 -1.0000000 )
                  (  0.0000000  1.0000000  0.0000000 )


      isym =  5     inv. 180 deg rotation - cart. axis [0,0,1]   

 cryst.   s( 5) = (     1          0          0      )
                  (     0          1          0      )
                  (     0          0         -1      )

 cart.    s( 5) = (  1.0000000  0.0000000  0.0000000 )
                  (  0.0000000  1.0000000  0.0000000 )
                  (  0.0000000  0.0000000 -1.0000000 )


      isym =  6     inv. 180 deg rotation - cart. axis [0,1,0]   

 cryst.   s( 6) = (     1          0          0      )
                  (     0         -1          0      )
                  (     0          0          1      )

 cart.    s( 6) = (  1.0000000  0.0000000  0.0000000 )
                  (  0.0000000 -1.0000000  0.0000000 )
                  (  0.0000000  0.0000000  1.0000000 )


      isym =  7     inv. 180 deg rotation - cart. axis [0,1,1]   

 cryst.   s( 7) = (     1          0          0      )
                  (     0          0         -1      )
                  (     0         -1          0      )

 cart.    s( 7) = (  1.0000000  0.0000000  0.0000000 )
                  (  0.0000000  0.0000000 -1.0000000 )
                  (  0.0000000 -1.0000000  0.0000000 )


      isym =  8     inv. 180 deg rotation - cart. axis [0,1,-1]  

 cryst.   s( 8) = (     1          0          0      )
                  (     0          0          1      )
                  (     0          1          0      )

 cart.    s( 8) = (  1.0000000  0.0000000  0.0000000 )
                  (  0.0000000  0.0000000  1.0000000 )
                  (  0.0000000  1.0000000  0.0000000 )


     point group C_4v (4mm) 
     there are  5 classes
     the character table:

       E     2C4   C2    2s_v  2s_d 
A_1    1.00  1.00  1.00  1.00  1.00
A_2    1.00  1.00  1.00 -1.00 -1.00
B_1    1.00 -1.00  1.00  1.00 -1.00
B_2    1.00 -1.00  1.00 -1.00  1.00
E      2.00  0.00 -2.00  0.00  0.00

     the symmetry operations in each class and the name of the first element:

     E        1
          identity                                               
     2C4      3    4
           90 deg rotation - cart. axis [-1,0,0]                 
     C2       2
          180 deg rotation - cart. axis [1,0,0]                  
     2s_v     5    6
          inv. 180 deg rotation - cart. axis [0,0,1]             
     2s_d     7    8
          inv. 180 deg rotation - cart. axis [0,1,1]             

   Cartesian axes

     site n.     atom                  positions (alat units)
         1           H   tau(   1) = (   0.0000000   0.0000000   0.0000000  )
         2           H   tau(   2) = (   0.0516525   0.0000000   0.0000000  )

   Crystallographic axes

     site n.     atom                  positions (cryst. coord.)
         1           H   tau(   1) = (  0.0000000  0.0000000  0.0000000  )
         2           H   tau(   2) = (  0.0516525  0.0000000  0.0000000  )

     number of k points=     1
                       cart. coord. in units 2pi/alat
        k(    1) = (  -0.5000000  -0.5000000  -0.5000000), wk =   2.0000000

                       cryst. coord.
        k(    1) = (  -0.5000000  -0.5000000  -0.5000000), wk =   2.0000000

     Dense  grid:   211657 G-vectors     FFT dimensions: (  75,  75,  75)

     Dynamical RAM for                 wfc:       0.81 MB

     Dynamical RAM for     wfc (w. buffer):       0.81 MB

     Dynamical RAM for           str. fact:       3.23 MB

     Dynamical RAM for           local pot:       0.00 MB

     Dynamical RAM for          nlocal pot:       0.81 MB

     Dynamical RAM for                qrad:       0.01 MB

     Dynamical RAM for          rho,v,vnew:      19.34 MB

     Dynamical RAM for               rhoin:       6.45 MB

     Dynamical RAM for            rho*nmix:      51.67 MB

     Dynamical RAM for           G-vectors:      13.73 MB

     Dynamical RAM for          h,s,v(r/c):       0.00 MB

     Dynamical RAM for          <psi|beta>:       0.00 MB

     Dynamical RAM for                 psi:       1.62 MB

     Dynamical RAM for                hpsi:       1.62 MB

     Dynamical RAM for                spsi:       1.62 MB

     Dynamical RAM for      wfcinit/wfcrot:       1.62 MB

     Dynamical RAM for           addusdens:      19.38 MB

     Dynamical RAM for          addusforce:      27.45 MB

     Estimated static dynamical RAM per process >      66.92 MB

     Estimated max dynamical RAM per process >     146.05 MB

     Initial potential from superposition of free atoms

     starting charge       2.0000, renormalised to       2.0000

     negative rho (up, down):  9.956E-02 0.000E+00
     Starting wfcs are    2 randomized atomic wfcs

     total cpu time spent up to now is        0.4 secs

     Self-consistent Calculation

     iteration #  1     ecut=    15.00 Ry     beta= 0.70
     Davidson diagonalization with overlap

---- Real-time Memory Report at c_bands before calling an iterative solver
           123 MiB given to the printing process from OS
             0 MiB allocation reported by mallinfo(arena+hblkhd)
           475 MiB available memory on the node where the printing process lives
------------------
     ethr =  1.00E-02,  avg # of iterations =  3.0

     negative rho (up, down):  1.540E-01 0.000E+00

     total cpu time spent up to now is        0.8 secs

     total energy              =      -2.29610865 Ry
     estimated scf accuracy    <       0.09955863 Ry

     iteration #  2     ecut=    15.00 Ry     beta= 0.70
     Davidson diagonalization with overlap

---- Real-time Memory Report at c_bands before calling an iterative solver
           152 MiB given to the printing process from OS
             0 MiB allocation reported by mallinfo(arena+hblkhd)
           417 MiB available memory on the node where the printing process lives
------------------
     ethr =  4.98E-03,  avg # of iterations =  2.0

     negative rho (up, down):  1.661E-01 0.000E+00

     total cpu time spent up to now is        1.2 secs

     total energy              =      -2.29601895 Ry
     estimated scf accuracy    <       0.00127871 Ry

     iteration #  3     ecut=    15.00 Ry     beta= 0.70
     Davidson diagonalization with overlap

---- Real-time Memory Report at c_bands before calling an iterative solver
           159 MiB given to the printing process from OS
             0 MiB allocation reported by mallinfo(arena+hblkhd)
           410 MiB available memory on the node where the printing process lives
------------------
     ethr =  6.39E-05,  avg # of iterations = 11.0

     negative rho (up, down):  1.664E-01 0.000E+00

     total cpu time spent up to now is        1.6 secs

     total energy              =      -2.29606095 Ry
     estimated scf accuracy    <       0.00001224 Ry

     iteration #  4     ecut=    15.00 Ry     beta= 0.70
     Davidson diagonalization with overlap

---- Real-time Memory Report at c_bands before calling an iterative solver
           165 MiB given to the printing process from OS
             0 MiB allocation reported by mallinfo(arena+hblkhd)
           404 MiB available memory on the node where the printing process lives
------------------
     ethr =  6.12E-07,  avg # of iterations =  5.0

     negative rho (up, down):  1.666E-01 0.000E+00

     total cpu time spent up to now is        2.1 secs

     total energy              =      -2.29590614 Ry
     estimated scf accuracy    <       0.00000038 Ry

     iteration #  5     ecut=    15.00 Ry     beta= 0.70
     Davidson diagonalization with overlap

---- Real-time Memory Report at c_bands before calling an iterative solver
           171 MiB given to the printing process from OS
             0 MiB allocation reported by mallinfo(arena+hblkhd)
           397 MiB available memory on the node where the printing process lives
------------------
     ethr =  1.92E-08,  avg # of iterations =  3.0

     negative rho (up, down):  1.667E-01 0.000E+00

     total cpu time spent up to now is        2.4 secs

     total energy              =      -2.29591409 Ry
     estimated scf accuracy    <       0.00000009 Ry

     iteration #  6     ecut=    15.00 Ry     beta= 0.70
     Davidson diagonalization with overlap

---- Real-time Memory Report at c_bands before calling an iterative solver
           178 MiB given to the printing process from OS
             0 MiB allocation reported by mallinfo(arena+hblkhd)
           391 MiB available memory on the node where the printing process lives
------------------
     ethr =  4.35E-09,  avg # of iterations =  3.0

     negative rho (up, down):  1.667E-01 0.000E+00

     total cpu time spent up to now is        2.8 secs

     total energy              =      -2.29590450 Ry
     estimated scf accuracy    <       0.00000001 Ry

     iteration #  7     ecut=    15.00 Ry     beta= 0.70
     Davidson diagonalization with overlap

---- Real-time Memory Report at c_bands before calling an iterative solver
           184 MiB given to the printing process from OS
             0 MiB allocation reported by mallinfo(arena+hblkhd)
           385 MiB available memory on the node where the printing process lives
------------------
     ethr =  5.54E-10,  avg # of iterations =  4.0

     negative rho (up, down):  1.667E-01 0.000E+00

     total cpu time spent up to now is        3.2 secs

     End of self-consistent calculation

          k =-0.5000-0.5000-0.5000 ( 26344 PWs)   bands (ev):

   -10.3054  -1.5283

     occupation numbers 
     1.0000   0.0000

     highest occupied, lowest unoccupied level (ev):   -10.3054   -1.5283

!    total energy              =      -2.29591796 Ry
     estimated scf accuracy    <          1.6E-09 Ry

     The total energy is the sum of the following terms:
     one-electron contribution =      -4.02935263 Ry
     hartree contribution      =       2.16883369 Ry
     xc contribution           =      -1.34814279 Ry
     ewald contribution        =       0.91274377 Ry

     convergence has been achieved in   7 iterations

     Forces acting on atoms (cartesian axes, Ry/au):

     atom    1 type  1   force =     0.08723089    0.00000000    0.00000000
     atom    2 type  1   force =    -0.08723089    0.00000000    0.00000000
     The non-local contrib.  to forces
     atom    1 type  1   force =     0.08328525    0.00000000    0.00000000
     atom    2 type  1   force =    -0.08242172    0.00000000    0.00000000
     The ionic contribution  to forces
     atom    1 type  1   force =    -0.83243787   -0.00000000   -0.00000000
     atom    2 type  1   force =     0.83243787    0.00000000   -0.00000000
     The local contribution  to forces
     atom    1 type  1   force =     0.83673029    0.00000000    0.00000000
     atom    2 type  1   force =    -0.83669901    0.00000000    0.00000000
     The core correction contribution to forces
     atom    1 type  1   force =     0.00000000    0.00000000    0.00000000
     atom    2 type  1   force =     0.00000000    0.00000000    0.00000000
     The Hubbard contrib.    to forces
     atom    1 type  1   force =     0.00000000    0.00000000    0.00000000
     atom    2 type  1   force =     0.00000000    0.00000000    0.00000000
     The SCF correction term to forces
     atom    1 type  1   force =    -0.00017660    0.00000000    0.00000000
     atom    2 type  1   force =    -0.00037786    0.00000000    0.00000000

     Total force =     0.123363     Total SCF correction =     0.000417

     BFGS Geometry Optimization
     Energy error            =      0.0E+00 Ry
     Gradient error          =      8.7E-02 Ry/Bohr

     number of scf cycles    =   1
     number of bfgs steps    =   0

     energy             new  =      -2.2959179577 Ry

     new trust radius        =       0.0872308890 bohr
     new conv_thr            =       0.0000000100 Ry


ATOMIC_POSITIONS (angstrom)
H             0.0461605985        0.0000000000        0.0000000000
H             0.7738394015        0.0000000000        0.0000000000



     Writing config-only to output data dir ./.save/
     NEW-OLD atomic charge density approx. for the potential

     negative rho (up, down):  1.605E-01 0.000E+00

     total cpu time spent up to now is        3.6 secs

     Self-consistent Calculation

     iteration #  1     ecut=    15.00 Ry     beta= 0.70
     Davidson diagonalization with overlap

---- Real-time Memory Report at c_bands before calling an iterative solver
           188 MiB given to the printing process from OS
             0 MiB allocation reported by mallinfo(arena+hblkhd)
           471 MiB available memory on the node where the printing process lives
------------------
     ethr =  1.00E-06,  avg # of iterations =  7.0

     negative rho (up, down):  1.756E-01 0.000E+00

     total cpu time spent up to now is        4.1 secs

     total energy              =      -2.30033305 Ry
     estimated scf accuracy    <       0.00207795 Ry

     iteration #  2     ecut=    15.00 Ry     beta= 0.70
     Davidson diagonalization with overlap

---- Real-time Memory Report at c_bands before calling an iterative solver
           188 MiB given to the printing process from OS
             0 MiB allocation reported by mallinfo(arena+hblkhd)
           414 MiB available memory on the node where the printing process lives
------------------
     ethr =  1.04E-04,  avg # of iterations =  1.0

     negative rho (up, down):  1.796E-01 0.000E+00

     total cpu time spent up to now is        4.4 secs

     total energy              =      -2.29838958 Ry
     estimated scf accuracy    <       0.00002422 Ry

     iteration #  3     ecut=    15.00 Ry     beta= 0.70
     Davidson diagonalization with overlap

---- Real-time Memory Report at c_bands before calling an iterative solver
           188 MiB given to the printing process from OS
             0 MiB allocation reported by mallinfo(arena+hblkhd)
           407 MiB available memory on the node where the printing process lives
------------------
     ethr =  1.21E-06,  avg # of iterations =  5.0

     negative rho (up, down):  1.804E-01 0.000E+00

     total cpu time spent up to now is        4.8 secs

     total energy              =      -2.29787432 Ry
     estimated scf accuracy    <       0.00000105 Ry

     iteration #  4     ecut=    15.00 Ry     beta= 0.70
     Davidson diagonalization with overlap

---- Real-time Memory Report at c_bands before calling an iterative solver
           188 MiB given to the printing process from OS
             0 MiB allocation reported by mallinfo(arena+hblkhd)
           401 MiB available memory on the node where the printing process lives
------------------
     ethr =  5.26E-08,  avg # of iterations =  3.0

     negative rho (up, down):  1.804E-01 0.000E+00

     total cpu time spent up to now is        5.2 secs

     total energy              =      -2.29790520 Ry
     estimated scf accuracy    <       0.00000024 Ry

     iteration #  5     ecut=    15.00 Ry     beta= 0.70
     Davidson diagonalization with overlap

---- Real-time Memory Report at c_bands before calling an iterative solver
           188 MiB given to the printing process from OS
             0 MiB allocation reported by mallinfo(arena+hblkhd)
           394 MiB available memory on the node where the printing process lives
------------------
     ethr =  1.18E-08,  avg # of iterations =  3.0

     negative rho (up, down):  1.803E-01 0.000E+00

     total cpu time spent up to now is        5.6 secs

     total energy              =      -2.29796878 Ry
     estimated scf accuracy    <       0.00000004 Ry

     iteration #  6     ecut=    15.00 Ry     beta= 0.70
     Davidson diagonalization with overlap

---- Real-time Memory Report at c_bands before calling an iterative solver
           188 MiB given to the printing process from OS
             0 MiB allocation reported by mallinfo(arena+hblkhd)
           388 MiB available memory on the node where the printing process lives
------------------
     ethr =  2.01E-09,  avg # of iterations =  4.0

     negative rho (up, down):  1.804E-01 0.000E+00

     total cpu time spent up to now is        6.0 secs

     total energy              =      -2.29796421 Ry
     estimated scf accuracy    <       0.00000025 Ry

     iteration #  7     ecut=    15.00 Ry     beta= 0.70
     Davidson diagonalization with overlap

---- Real-time Memory Report at c_bands before calling an iterative solver
           188 MiB given to the printing process from OS
             0 MiB allocation reported by mallinfo(arena+hblkhd)
           382 MiB available memory on the node where the printing process lives
------------------
     ethr =  2.01E-09,  avg # of iterations =  3.0

     negative rho (up, down):  1.804E-01 0.000E+00

     total cpu time spent up to now is        6.4 secs

     total energy              =      -2.29793812 Ry
     estimated scf accuracy    <       0.00000005 Ry

     iteration #  8     ecut=    15.00 Ry     beta= 0.70
     Davidson diagonalization with overlap

---- Real-time Memory Report at c_bands before calling an iterative solver
           195 MiB given to the printing process from OS
             0 MiB allocation reported by mallinfo(arena+hblkhd)
           375 MiB available memory on the node where the printing process lives
------------------
     ethr =  2.01E-09,  avg # of iterations =  4.0

     negative rho (up, down):  1.804E-01 0.000E+00

     total cpu time spent up to now is        6.8 secs

     total energy              =      -2.29793909 Ry
     estimated scf accuracy    <       0.00000007 Ry

     iteration #  9     ecut=    15.00 Ry     beta= 0.70
     Davidson diagonalization with overlap

---- Real-time Memory Report at c_bands before calling an iterative solver
           201 MiB given to the printing process from OS
             0 MiB allocation reported by mallinfo(arena+hblkhd)
           369 MiB available memory on the node where the printing process lives
------------------
     ethr =  2.01E-09,  avg # of iterations =  3.0

     negative rho (up, down):  1.804E-01 0.000E+00

     total cpu time spent up to now is        7.2 secs

     End of self-consistent calculation

          k =-0.5000-0.5000-0.5000 ( 26344 PWs)   bands (ev):

   -10.7718  -1.4390

     occupation numbers 
     1.0000   0.0000

     highest occupied, lowest unoccupied level (ev):   -10.7718   -1.4390

!    total energy              =      -2.29795737 Ry
     estimated scf accuracy    <          3.3E-09 Ry

     The total energy is the sum of the following terms:
     one-electron contribution =      -4.25890723 Ry
     hartree contribution      =       2.28836482 Ry
     xc contribution           =      -1.40382814 Ry
     ewald contribution        =       1.07641318 Ry

     convergence has been achieved in   9 iterations

     Forces acting on atoms (cartesian axes, Ry/au):

     atom    1 type  1   force =     0.01660219    0.00000000    0.00000000
     atom    2 type  1   force =    -0.01660219    0.00000000    0.00000000
     The non-local contrib.  to forces
     atom    1 type  1   force =     0.14552219    0.00000000    0.00000000
     atom    2 type  1   force =    -0.14700235    0.00000000    0.00000000
     The ionic contribution  to forces
     atom    1 type  1   force =    -1.05724707    0.00000000   -0.00000000
     atom    2 type  1   force =     1.05724707   -0.00000000   -0.00000000
     The local contribution  to forces
     atom    1 type  1   force =     0.92757452    0.00000000    0.00000000
     atom    2 type  1   force =    -0.92766219    0.00000000    0.00000000
     The core correction contribution to forces
     atom    1 type  1   force =     0.00000000    0.00000000    0.00000000
     atom    2 type  1   force =     0.00000000    0.00000000    0.00000000
     The Hubbard contrib.    to forces
     atom    1 type  1   force =     0.00000000    0.00000000    0.00000000
     atom    2 type  1   force =     0.00000000    0.00000000    0.00000000
     The SCF correction term to forces
     atom    1 type  1   force =    -0.00025403   -0.00000000   -0.00000000
     atom    2 type  1   force =    -0.00019131   -0.00000000   -0.00000000

     Total force =     0.023479     Total SCF correction =     0.000318
     Energy error            =      2.0E-03 Ry
     Gradient error          =      1.7E-02 Ry/Bohr

     number of scf cycles    =   2
     number of bfgs steps    =   1

     energy             old  =      -2.2959179577 Ry
     energy             new  =      -2.2979573709 Ry

     CASE: energy            _new < energy            _old

     new trust radius        =       0.0205047464 bohr
     new conv_thr            =       0.0000000017 Ry


ATOMIC_POSITIONS (angstrom)
H             0.0570112431        0.0000000000        0.0000000000
H             0.7629887569        0.0000000000        0.0000000000



     Writing config-only to output data dir ./.save/
     NEW-OLD atomic charge density approx. for the potential

     negative rho (up, down):  1.808E-01 0.000E+00

     total cpu time spent up to now is        7.6 secs

     Self-consistent Calculation

     iteration #  1     ecut=    15.00 Ry     beta= 0.70
     Davidson diagonalization with overlap

---- Real-time Memory Report at c_bands before calling an iterative solver
           201 MiB given to the printing process from OS
             0 MiB allocation reported by mallinfo(arena+hblkhd)
           470 MiB available memory on the node where the printing process lives
------------------
     ethr =  1.00E-06,  avg # of iterations =  3.0

     negative rho (up, down):  1.851E-01 0.000E+00

     total cpu time spent up to now is        8.0 secs

     total energy              =      -2.29541559 Ry
     estimated scf accuracy    <       0.00015259 Ry

     iteration #  2     ecut=    15.00 Ry     beta= 0.70
     Davidson diagonalization with overlap

---- Real-time Memory Report at c_bands before calling an iterative solver
           201 MiB given to the printing process from OS
             0 MiB allocation reported by mallinfo(arena+hblkhd)
           413 MiB available memory on the node where the printing process lives
------------------
     ethr =  7.63E-06,  avg # of iterations =  2.0

     negative rho (up, down):  1.861E-01 0.000E+00

     total cpu time spent up to now is        8.3 secs

     total energy              =      -2.29490178 Ry
     estimated scf accuracy    <       0.00000185 Ry

     iteration #  3     ecut=    15.00 Ry     beta= 0.70
     Davidson diagonalization with overlap

---- Real-time Memory Report at c_bands before calling an iterative solver
           201 MiB given to the printing process from OS
             0 MiB allocation reported by mallinfo(arena+hblkhd)
           407 MiB available memory on the node where the printing process lives
------------------
     ethr =  9.25E-08,  avg # of iterations =  4.0

     negative rho (up, down):  1.860E-01 0.000E+00

     total cpu time spent up to now is        8.8 secs

     total energy              =      -2.29498630 Ry
     estimated scf accuracy    <       0.00000109 Ry

     iteration #  4     ecut=    15.00 Ry     beta= 0.70
     Davidson diagonalization with overlap

---- Real-time Memory Report at c_bands before calling an iterative solver
           201 MiB given to the printing process from OS
             0 MiB allocation reported by mallinfo(arena+hblkhd)
           400 MiB available memory on the node where the printing process lives
------------------
     ethr =  5.47E-08,  avg # of iterations =  3.0

     negative rho (up, down):  1.863E-01 0.000E+00

     total cpu time spent up to now is        9.1 secs

     total energy              =      -2.29484683 Ry
     estimated scf accuracy    <       0.00000084 Ry

     iteration #  5     ecut=    15.00 Ry     beta= 0.70
     Davidson diagonalization with overlap

---- Real-time Memory Report at c_bands before calling an iterative solver
           201 MiB given to the printing process from OS
             0 MiB allocation reported by mallinfo(arena+hblkhd)
           394 MiB available memory on the node where the printing process lives
------------------
     ethr =  4.20E-08,  avg # of iterations =  3.0

     negative rho (up, down):  1.862E-01 0.000E+00

     total cpu time spent up to now is        9.5 secs

     total energy              =      -2.29487407 Ry
     estimated scf accuracy    <       0.00000064 Ry

     iteration #  6     ecut=    15.00 Ry     beta= 0.70
     Davidson diagonalization with overlap

---- Real-time Memory Report at c_bands before calling an iterative solver
           201 MiB given to the printing process from OS
             0 MiB allocation reported by mallinfo(arena+hblkhd)
           387 MiB available memory on the node where the printing process lives
------------------
     ethr =  3.19E-08,  avg # of iterations =  3.0

     negative rho (up, down):  1.862E-01 0.000E+00

     total cpu time spent up to now is        9.9 secs

     total energy              =      -2.29488731 Ry
     estimated scf accuracy    <       0.00000004 Ry

     iteration #  7     ecut=    15.00 Ry     beta= 0.70
     Davidson diagonalization with overlap

---- Real-time Memory Report at c_bands before calling an iterative solver
           201 MiB given to the printing process from OS
             0 MiB allocation reported by mallinfo(arena+hblkhd)
           381 MiB available memory on the node where the printing process lives
------------------
     ethr =  2.18E-09,  avg # of iterations =  3.0

     negative rho (up, down):  1.862E-01 0.000E+00

     total cpu time spent up to now is       10.3 secs

     total energy              =      -2.29487778 Ry
     estimated scf accuracy    <       0.00000009 Ry

     iteration #  8     ecut=    15.00 Ry     beta= 0.70
     Davidson diagonalization with overlap

---- Real-time Memory Report at c_bands before calling an iterative solver
           201 MiB given to the printing process from OS
             0 MiB allocation reported by mallinfo(arena+hblkhd)
           375 MiB available memory on the node where the printing process lives
------------------
     ethr =  2.18E-09,  avg # of iterations =  3.0

     negative rho (up, down):  1.862E-01 0.000E+00

     total cpu time spent up to now is       10.7 secs

     total energy              =      -2.29486373 Ry
     estimated scf accuracy    <       0.00000002 Ry

     iteration #  9     ecut=    15.00 Ry     beta= 0.70
     Davidson diagonalization with overlap

---- Real-time Memory Report at c_bands before calling an iterative solver
           201 MiB given to the printing process from OS
             0 MiB allocation reported by mallinfo(arena+hblkhd)
           368 MiB available memory on the node where the printing process lives
------------------
     ethr =  1.15E-09,  avg # of iterations =  3.0

     negative rho (up, down):  1.862E-01 0.000E+00

     total cpu time spent up to now is       11.1 secs

     total energy              =      -2.29487259 Ry
     estimated scf accuracy    <          1.7E-09 Ry

     iteration # 10     ecut=    15.00 Ry     beta= 0.70
     Davidson diagonalization with overlap

---- Real-time Memory Report at c_bands before calling an iterative solver
           208 MiB given to the printing process from OS
             0 MiB allocation reported by mallinfo(arena+hblkhd)
           362 MiB available memory on the node where the printing process lives
------------------
     ethr =  8.37E-11,  avg # of iterations =  4.0

     negative rho (up, down):  1.862E-01 0.000E+00

     total cpu time spent up to now is       11.5 secs

     total energy              =      -2.29486490 Ry
     estimated scf accuracy    <       0.00000003 Ry

     iteration # 11     ecut=    15.00 Ry     beta= 0.70
     Davidson diagonalization with overlap

---- Real-time Memory Report at c_bands before calling an iterative solver
           208 MiB given to the printing process from OS
             0 MiB allocation reported by mallinfo(arena+hblkhd)
           362 MiB available memory on the node where the printing process lives
------------------
     ethr =  8.37E-11,  avg # of iterations =  5.0

     negative rho (up, down):  1.862E-01 0.000E+00

     total cpu time spent up to now is       11.9 secs

     total energy              =      -2.29487011 Ry
     estimated scf accuracy    <          4.9E-09 Ry

     iteration # 12     ecut=    15.00 Ry     beta= 0.70
     Davidson diagonalization with overlap

---- Real-time Memory Report at c_bands before calling an iterative solver
           208 MiB given to the printing process from OS
             0 MiB allocation reported by mallinfo(arena+hblkhd)
           362 MiB available memory on the node where the printing process lives
------------------
     ethr =  8.37E-11,  avg # of iterations =  2.0

     negative rho (up, down):  1.862E-01 0.000E+00

     total cpu time spent up to now is       12.3 secs

     total energy              =      -2.29487225 Ry
     estimated scf accuracy    <          6.7E-09 Ry

     iteration # 13     ecut=    15.00 Ry     beta= 0.70
     Davidson diagonalization with overlap

---- Real-time Memory Report at c_bands before calling an iterative solver
           208 MiB given to the printing process from OS
             0 MiB allocation reported by mallinfo(arena+hblkhd)
           362 MiB available memory on the node where the printing process lives
------------------
     ethr =  8.37E-11,  avg # of iterations =  3.0

     negative rho (up, down):  1.862E-01 0.000E+00

     total cpu time spent up to now is       12.7 secs

     total energy              =      -2.29487278 Ry
     estimated scf accuracy    <          7.2E-09 Ry

     iteration # 14     ecut=    15.00 Ry     beta= 0.70
     Davidson diagonalization with overlap

---- Real-time Memory Report at c_bands before calling an iterative solver
           208 MiB given to the printing process from OS
             0 MiB allocation reported by mallinfo(arena+hblkhd)
           362 MiB available memory on the node where the printing process lives
------------------
     ethr =  8.37E-11,  avg # of iterations =  2.0

     negative rho (up, down):  1.862E-01 0.000E+00

     total cpu time spent up to now is       13.1 secs

     total energy              =      -2.29485356 Ry
     estimated scf accuracy    <          7.6E-09 Ry

     iteration # 15     ecut=    15.00 Ry     beta= 0.70
     Davidson diagonalization with overlap

---- Real-time Memory Report at c_bands before calling an iterative solver
           208 MiB given to the printing process from OS
             0 MiB allocation reported by mallinfo(arena+hblkhd)
           362 MiB available memory on the node where the printing process lives
------------------
     ethr =  8.37E-11,  avg # of iterations =  5.0

     negative rho (up, down):  1.862E-01 0.000E+00

     total cpu time spent up to now is       13.5 secs

     total energy              =      -2.29487554 Ry
     estimated scf accuracy    <       0.00000009 Ry

     iteration # 16     ecut=    15.00 Ry     beta= 0.70
     Davidson diagonalization with overlap

---- Real-time Memory Report at c_bands before calling an iterative solver
           208 MiB given to the printing process from OS
             0 MiB allocation reported by mallinfo(arena+hblkhd)
           362 MiB available memory on the node where the printing process lives
------------------
     ethr =  8.37E-11,  avg # of iterations =  5.0

     negative rho (up, down):  1.862E-01 0.000E+00

     total cpu time spent up to now is       14.0 secs

     total energy              =      -2.29487766 Ry
     estimated scf accuracy    <          9.5E-09 Ry

     iteration # 17     ecut=    15.00 Ry     beta= 0.70
     Davidson diagonalization with overlap

---- Real-time Memory Report at c_bands before calling an iterative solver
           208 MiB given to the printing process from OS
             0 MiB allocation reported by mallinfo(arena+hblkhd)
           362 MiB available memory on the node where the printing process lives
------------------
     ethr =  8.37E-11,  avg # of iterations =  4.0

     negative rho (up, down):  1.862E-01 0.000E+00

     total cpu time spent up to now is       14.4 secs

     total energy              =      -2.29487971 Ry
     estimated scf accuracy    <       0.00000001 Ry

     iteration # 18     ecut=    15.00 Ry     beta= 0.70
     Davidson diagonalization with overlap

---- Real-time Memory Report at c_bands before calling an iterative solver
           208 MiB given to the printing process from OS
             0 MiB allocation reported by mallinfo(arena+hblkhd)
           362 MiB available memory on the node where the printing process lives
------------------
     ethr =  8.37E-11,  avg # of iterations =  3.0

     negative rho (up, down):  1.862E-01 0.000E+00

     total cpu time spent up to now is       14.8 secs

     total energy              =      -2.29487955 Ry
     estimated scf accuracy    <          7.3E-09 Ry

     iteration # 19     ecut=    15.00 Ry     beta= 0.70
     Davidson diagonalization with overlap

---- Real-time Memory Report at c_bands before calling an iterative solver
           208 MiB given to the printing process from OS
             0 MiB allocation reported by mallinfo(arena+hblkhd)
           362 MiB available memory on the node where the printing process lives
------------------
     ethr =  8.37E-11,  avg # of iterations =  2.0

     negative rho (up, down):  1.863E-01 0.000E+00

     total cpu time spent up to now is       15.2 secs

     total energy              =      -2.29484360 Ry
     estimated scf accuracy    <          7.5E-09 Ry

     iteration # 20     ecut=    15.00 Ry     beta= 0.70
     Davidson diagonalization with overlap

---- Real-time Memory Report at c_bands before calling an iterative solver
           208 MiB given to the printing process from OS
             0 MiB allocation reported by mallinfo(arena+hblkhd)
           362 MiB available memory on the node where the printing process lives
------------------
     ethr =  8.37E-11,  avg # of iterations =  4.0

     negative rho (up, down):  1.863E-01 0.000E+00

     total cpu time spent up to now is       15.6 secs

     total energy              =      -2.29483974 Ry
     estimated scf accuracy    <       0.00000009 Ry

     iteration # 21     ecut=    15.00 Ry     beta= 0.70
     Davidson diagonalization with overlap

---- Real-time Memory Report at c_bands before calling an iterative solver
           208 MiB given to the printing process from OS
             0 MiB allocation reported by mallinfo(arena+hblkhd)
           362 MiB available memory on the node where the printing process lives
------------------
     ethr =  8.37E-11,  avg # of iterations =  4.0

     negative rho (up, down):  1.863E-01 0.000E+00

     total cpu time spent up to now is       16.0 secs

     total energy              =      -2.29484078 Ry
     estimated scf accuracy    <       0.00000017 Ry

     iteration # 22     ecut=    15.00 Ry     beta= 0.70
     Davidson diagonalization with overlap

---- Real-time Memory Report at c_bands before calling an iterative solver
           208 MiB given to the printing process from OS
             0 MiB allocation reported by mallinfo(arena+hblkhd)
           362 MiB available memory on the node where the printing process lives
------------------
     ethr =  8.37E-11,  avg # of iterations =  2.0

     negative rho (up, down):  1.863E-01 0.000E+00

     total cpu time spent up to now is       16.4 secs

     total energy              =      -2.29484221 Ry
     estimated scf accuracy    <       0.00000018 Ry

     iteration # 23     ecut=    15.00 Ry     beta= 0.70
     Davidson diagonalization with overlap

---- Real-time Memory Report at c_bands before calling an iterative solver
           208 MiB given to the printing process from OS
             0 MiB allocation reported by mallinfo(arena+hblkhd)
           362 MiB available memory on the node where the printing process lives
------------------
     ethr =  8.37E-11,  avg # of iterations =  4.0

     negative rho (up, down):  1.862E-01 0.000E+00

     total cpu time spent up to now is       16.8 secs

     total energy              =      -2.29489759 Ry
     estimated scf accuracy    <       0.00000028 Ry

     iteration # 24     ecut=    15.00 Ry     beta= 0.70
     Davidson diagonalization with overlap

---- Real-time Memory Report at c_bands before calling an iterative solver
           208 MiB given to the printing process from OS
             0 MiB allocation reported by mallinfo(arena+hblkhd)
           362 MiB available memory on the node where the printing process lives
------------------
     ethr =  8.37E-11,  avg # of iterations =  5.0

     negative rho (up, down):  1.862E-01 0.000E+00

     total cpu time spent up to now is       17.3 secs

     total energy              =      -2.29490358 Ry
     estimated scf accuracy    <       0.00000003 Ry

     iteration # 25     ecut=    15.00 Ry     beta= 0.70
     Davidson diagonalization with overlap

---- Real-time Memory Report at c_bands before calling an iterative solver
           208 MiB given to the printing process from OS
             0 MiB allocation reported by mallinfo(arena+hblkhd)
           362 MiB available memory on the node where the printing process lives
------------------
     ethr =  8.37E-11,  avg # of iterations =  4.0

     negative rho (up, down):  1.863E-01 0.000E+00

     total cpu time spent up to now is       17.7 secs

     total energy              =      -2.29486583 Ry
     estimated scf accuracy    <       0.00000010 Ry

     iteration # 26     ecut=    15.00 Ry     beta= 0.70
     Davidson diagonalization with overlap

---- Real-time Memory Report at c_bands before calling an iterative solver
           208 MiB given to the printing process from OS
             0 MiB allocation reported by mallinfo(arena+hblkhd)
           362 MiB available memory on the node where the printing process lives
------------------
     ethr =  8.37E-11,  avg # of iterations =  4.0

     negative rho (up, down):  1.862E-01 0.000E+00

     total cpu time spent up to now is       18.1 secs

     total energy              =      -2.29487067 Ry
     estimated scf accuracy    <          3.5E-09 Ry

     iteration # 27     ecut=    15.00 Ry     beta= 0.70
     Davidson diagonalization with overlap

---- Real-time Memory Report at c_bands before calling an iterative solver
           208 MiB given to the printing process from OS
             0 MiB allocation reported by mallinfo(arena+hblkhd)
           362 MiB available memory on the node where the printing process lives
------------------
     ethr =  8.37E-11,  avg # of iterations =  4.0

     negative rho (up, down):  1.862E-01 0.000E+00

     total cpu time spent up to now is       18.5 secs

     total energy              =      -2.29487322 Ry
     estimated scf accuracy    <       0.00000001 Ry

     iteration # 28     ecut=    15.00 Ry     beta= 0.70
     Davidson diagonalization with overlap

---- Real-time Memory Report at c_bands before calling an iterative solver
           208 MiB given to the printing process from OS
             0 MiB allocation reported by mallinfo(arena+hblkhd)
           362 MiB available memory on the node where the printing process lives
------------------
     ethr =  8.37E-11,  avg # of iterations =  4.0

     negative rho (up, down):  1.863E-01 0.000E+00

     total cpu time spent up to now is       18.9 secs

     total energy              =      -2.29484224 Ry
     estimated scf accuracy    <       0.00000003 Ry

     iteration # 29     ecut=    15.00 Ry     beta= 0.70
     Davidson diagonalization with overlap

---- Real-time Memory Report at c_bands before calling an iterative solver
           208 MiB given to the printing process from OS
             0 MiB allocation reported by mallinfo(arena+hblkhd)
           362 MiB available memory on the node where the printing process lives
------------------
     ethr =  8.37E-11,  avg # of iterations =  4.0

     negative rho (up, down):  1.862E-01 0.000E+00

     total cpu time spent up to now is       19.4 secs

     total energy              =      -2.29486670 Ry
     estimated scf accuracy    <       0.00000014 Ry

     iteration # 30     ecut=    15.00 Ry     beta= 0.70
     Davidson diagonalization with overlap

---- Real-time Memory Report at c_bands before calling an iterative solver
           208 MiB given to the printing process from OS
             0 MiB allocation reported by mallinfo(arena+hblkhd)
           362 MiB available memory on the node where the printing process lives
------------------
     ethr =  8.37E-11,  avg # of iterations =  4.0

     negative rho (up, down):  1.862E-01 0.000E+00

     total cpu time spent up to now is       19.8 secs

     total energy              =      -2.29486868 Ry
     estimated scf accuracy    <          5.4E-09 Ry

     iteration # 31     ecut=    15.00 Ry     beta= 0.70
     Davidson diagonalization with overlap

---- Real-time Memory Report at c_bands before calling an iterative solver
           208 MiB given to the printing process from OS
             0 MiB allocation reported by mallinfo(arena+hblkhd)
           362 MiB available memory on the node where the printing process lives
------------------
     ethr =  8.37E-11,  avg # of iterations =  2.0

     negative rho (up, down):  1.862E-01 0.000E+00

     total cpu time spent up to now is       20.2 secs

     total energy              =      -2.29486786 Ry
     estimated scf accuracy    <          5.7E-09 Ry

     iteration # 32     ecut=    15.00 Ry     beta= 0.70
     Davidson diagonalization with overlap

---- Real-time Memory Report at c_bands before calling an iterative solver
           208 MiB given to the printing process from OS
             0 MiB allocation reported by mallinfo(arena+hblkhd)
           362 MiB available memory on the node where the printing process lives
------------------
     ethr =  8.37E-11,  avg # of iterations =  2.0

     negative rho (up, down):  1.863E-01 0.000E+00

     total cpu time spent up to now is       20.6 secs

     total energy              =      -2.29486704 Ry
     estimated scf accuracy    <          5.5E-09 Ry

     iteration # 33     ecut=    15.00 Ry     beta= 0.70
     Davidson diagonalization with overlap

---- Real-time Memory Report at c_bands before calling an iterative solver
           208 MiB given to the printing process from OS
             0 MiB allocation reported by mallinfo(arena+hblkhd)
           362 MiB available memory on the node where the printing process lives
------------------
     ethr =  8.37E-11,  avg # of iterations =  2.0

     negative rho (up, down):  1.863E-01 0.000E+00

     total cpu time spent up to now is       20.9 secs

     total energy              =      -2.29486989 Ry
     estimated scf accuracy    <          6.1E-09 Ry

     iteration # 34     ecut=    15.00 Ry     beta= 0.70
     Davidson diagonalization with overlap

---- Real-time Memory Report at c_bands before calling an iterative solver
           208 MiB given to the printing process from OS
             0 MiB allocation reported by mallinfo(arena+hblkhd)
           362 MiB available memory on the node where the printing process lives
------------------
     ethr =  8.37E-11,  avg # of iterations =  1.0

     negative rho (up, down):  1.863E-01 0.000E+00

     total cpu time spent up to now is       21.3 secs

     total energy              =      -2.29484424 Ry
     estimated scf accuracy    <          6.2E-09 Ry

     iteration # 35     ecut=    15.00 Ry     beta= 0.70
     Davidson diagonalization with overlap

---- Real-time Memory Report at c_bands before calling an iterative solver
           208 MiB given to the printing process from OS
             0 MiB allocation reported by mallinfo(arena+hblkhd)
           362 MiB available memory on the node where the printing process lives
------------------
     ethr =  8.37E-11,  avg # of iterations =  4.0

     negative rho (up, down):  1.863E-01 0.000E+00

     total cpu time spent up to now is       21.7 secs

     total energy              =      -2.29483215 Ry
     estimated scf accuracy    <       0.00000007 Ry

     iteration # 36     ecut=    15.00 Ry     beta= 0.70
     Davidson diagonalization with overlap

---- Real-time Memory Report at c_bands before calling an iterative solver
           208 MiB given to the printing process from OS
             0 MiB allocation reported by mallinfo(arena+hblkhd)
           362 MiB available memory on the node where the printing process lives
------------------
     ethr =  8.37E-11,  avg # of iterations =  5.0

     negative rho (up, down):  1.863E-01 0.000E+00

     total cpu time spent up to now is       22.2 secs

     total energy              =      -2.29483382 Ry
     estimated scf accuracy    <       0.00000022 Ry

     iteration # 37     ecut=    15.00 Ry     beta= 0.70
     Davidson diagonalization with overlap

---- Real-time Memory Report at c_bands before calling an iterative solver
           208 MiB given to the printing process from OS
             0 MiB allocation reported by mallinfo(arena+hblkhd)
           361 MiB available memory on the node where the printing process lives
------------------
     ethr =  8.37E-11,  avg # of iterations =  3.0

     negative rho (up, down):  1.864E-01 0.000E+00

     total cpu time spent up to now is       22.6 secs

     total energy              =      -2.29483283 Ry
     estimated scf accuracy    <       0.00000021 Ry

     iteration # 38     ecut=    15.00 Ry     beta= 0.70
     Davidson diagonalization with overlap

---- Real-time Memory Report at c_bands before calling an iterative solver
           208 MiB given to the printing process from OS
             0 MiB allocation reported by mallinfo(arena+hblkhd)
           361 MiB available memory on the node where the printing process lives
------------------
     ethr =  8.37E-11,  avg # of iterations =  5.0

     negative rho (up, down):  1.863E-01 0.000E+00

     total cpu time spent up to now is       23.0 secs

     total energy              =      -2.29484718 Ry
     estimated scf accuracy    <       0.00000103 Ry

     iteration # 39     ecut=    15.00 Ry     beta= 0.70
     Davidson diagonalization with overlap

---- Real-time Memory Report at c_bands before calling an iterative solver
           208 MiB given to the printing process from OS
             0 MiB allocation reported by mallinfo(arena+hblkhd)
           361 MiB available memory on the node where the printing process lives
------------------
     ethr =  8.37E-11,  avg # of iterations =  5.0

     negative rho (up, down):  1.863E-01 0.000E+00

     total cpu time spent up to now is       23.4 secs

     total energy              =      -2.29484017 Ry
     estimated scf accuracy    <       0.00000012 Ry

     iteration # 40     ecut=    15.00 Ry     beta= 0.70
     Davidson diagonalization with overlap

---- Real-time Memory Report at c_bands before calling an iterative solver
           208 MiB given to the printing process from OS
             0 MiB allocation reported by mallinfo(arena+hblkhd)
           361 MiB available memory on the node where the printing process lives
------------------
     ethr =  8.37E-11,  avg # of iterations =  4.0

     negative rho (up, down):  1.863E-01 0.000E+00

     total cpu time spent up to now is       23.8 secs

     total energy              =      -2.29485978 Ry
     estimated scf accuracy    <       0.00000013 Ry

     iteration # 41     ecut=    15.00 Ry     beta= 0.70
     Davidson diagonalization with overlap

---- Real-time Memory Report at c_bands before calling an iterative solver
           208 MiB given to the printing process from OS
             0 MiB allocation reported by mallinfo(arena+hblkhd)
           361 MiB available memory on the node where the printing process lives
------------------
     ethr =  8.37E-11,  avg # of iterations =  4.0

     negative rho (up, down):  1.863E-01 0.000E+00

     total cpu time spent up to now is       24.2 secs

     total energy              =      -2.29486054 Ry
     estimated scf accuracy    <       0.00000006 Ry

     iteration # 42     ecut=    15.00 Ry     beta= 0.70
     Davidson diagonalization with overlap

---- Real-time Memory Report at c_bands before calling an iterative solver
           208 MiB given to the printing process from OS
             0 MiB allocation reported by mallinfo(arena+hblkhd)
           361 MiB available memory on the node where the printing process lives
------------------
     ethr =  8.37E-11,  avg # of iterations =  3.0

     negative rho (up, down):  1.862E-01 0.000E+00

     total cpu time spent up to now is       24.6 secs

     total energy              =      -2.29486878 Ry
     estimated scf accuracy    <       0.00000007 Ry

     iteration # 43     ecut=    15.00 Ry     beta= 0.70
     Davidson diagonalization with overlap

---- Real-time Memory Report at c_bands before calling an iterative solver
           208 MiB given to the printing process from OS
             0 MiB allocation reported by mallinfo(arena+hblkhd)
           361 MiB available memory on the node where the printing process lives
------------------
     ethr =  8.37E-11,  avg # of iterations =  4.0

     negative rho (up, down):  1.862E-01 0.000E+00

     total cpu time spent up to now is       25.0 secs

     total energy              =      -2.29487065 Ry
     estimated scf accuracy    <          7.5E-09 Ry

     iteration # 44     ecut=    15.00 Ry     beta= 0.70
     Davidson diagonalization with overlap

---- Real-time Memory Report at c_bands before calling an iterative solver
           208 MiB given to the printing process from OS
             0 MiB allocation reported by mallinfo(arena+hblkhd)
           361 MiB available memory on the node where the printing process lives
------------------
     ethr =  8.37E-11,  avg # of iterations =  2.0

     negative rho (up, down):  1.862E-01 0.000E+00

     total cpu time spent up to now is       25.4 secs

     total energy              =      -2.29487131 Ry
     estimated scf accuracy    <          8.7E-09 Ry

     iteration # 45     ecut=    15.00 Ry     beta= 0.70
     Davidson diagonalization with overlap

---- Real-time Memory Report at c_bands before calling an iterative solver
           208 MiB given to the printing process from OS
             0 MiB allocation reported by mallinfo(arena+hblkhd)
           361 MiB available memory on the node where the printing process lives
------------------
     ethr =  8.37E-11,  avg # of iterations =  2.0

     negative rho (up, down):  1.862E-01 0.000E+00

     total cpu time spent up to now is       25.8 secs

     total energy              =      -2.29487108 Ry
     estimated scf accuracy    <       0.00000001 Ry

     iteration # 46     ecut=    15.00 Ry     beta= 0.70
     Davidson diagonalization with overlap

---- Real-time Memory Report at c_bands before calling an iterative solver
           208 MiB given to the printing process from OS
             0 MiB allocation reported by mallinfo(arena+hblkhd)
           361 MiB available memory on the node where the printing process lives
------------------
     ethr =  8.37E-11,  avg # of iterations =  2.0

     negative rho (up, down):  1.862E-01 0.000E+00

     total cpu time spent up to now is       26.2 secs

     total energy              =      -2.29487060 Ry
     estimated scf accuracy    <       0.00000001 Ry

     iteration # 47     ecut=    15.00 Ry     beta= 0.70
     Davidson diagonalization with overlap

---- Real-time Memory Report at c_bands before calling an iterative solver
           208 MiB given to the printing process from OS
             0 MiB allocation reported by mallinfo(arena+hblkhd)
           361 MiB available memory on the node where the printing process lives
------------------
     ethr =  8.37E-11,  avg # of iterations =  2.0

     negative rho (up, down):  1.863E-01 0.000E+00

     total cpu time spent up to now is       26.6 secs

     total energy              =      -2.29485856 Ry
     estimated scf accuracy    <       0.00000001 Ry

     iteration # 48     ecut=    15.00 Ry     beta= 0.70
     Davidson diagonalization with overlap

---- Real-time Memory Report at c_bands before calling an iterative solver
           208 MiB given to the printing process from OS
             0 MiB allocation reported by mallinfo(arena+hblkhd)
           361 MiB available memory on the node where the printing process lives
------------------
     ethr =  8.37E-11,  avg # of iterations =  5.0

     negative rho (up, down):  1.863E-01 0.000E+00

     total cpu time spent up to now is       27.0 secs

     total energy              =      -2.29484942 Ry
     estimated scf accuracy    <       0.00000009 Ry

     iteration # 49     ecut=    15.00 Ry     beta= 0.70
     Davidson diagonalization with overlap

---- Real-time Memory Report at c_bands before calling an iterative solver
           208 MiB given to the printing process from OS
             0 MiB allocation reported by mallinfo(arena+hblkhd)
           361 MiB available memory on the node where the printing process lives
------------------
     ethr =  8.37E-11,  avg # of iterations =  4.0

     negative rho (up, down):  1.863E-01 0.000E+00

     total cpu time spent up to now is       27.4 secs

     total energy              =      -2.29484216 Ry
     estimated scf accuracy    <       0.00000005 Ry

     iteration # 50     ecut=    15.00 Ry     beta= 0.70
     Davidson diagonalization with overlap

---- Real-time Memory Report at c_bands before calling an iterative solver
           208 MiB given to the printing process from OS
             0 MiB allocation reported by mallinfo(arena+hblkhd)
           361 MiB available memory on the node where the printing process lives
------------------
     ethr =  8.37E-11,  avg # of iterations =  5.0

     negative rho (up, down):  1.862E-01 0.000E+00

     total cpu time spent up to now is       27.8 secs

     total energy              =      -2.29486932 Ry
     estimated scf accuracy    <       0.00000019 Ry

     iteration # 51     ecut=    15.00 Ry     beta= 0.70
     Davidson diagonalization with overlap

---- Real-time Memory Report at c_bands before calling an iterative solver
           208 MiB given to the printing process from OS
             0 MiB allocation reported by mallinfo(arena+hblkhd)
           361 MiB available memory on the node where the printing process lives
------------------
     ethr =  8.37E-11,  avg # of iterations =  4.0

     negative rho (up, down):  1.862E-01 0.000E+00

     total cpu time spent up to now is       28.2 secs

     total energy              =      -2.29486748 Ry
     estimated scf accuracy    <       0.00000005 Ry

     iteration # 52     ecut=    15.00 Ry     beta= 0.70
     Davidson diagonalization with overlap

---- Real-time Memory Report at c_bands before calling an iterative solver
           208 MiB given to the printing process from OS
             0 MiB allocation reported by mallinfo(arena+hblkhd)
           361 MiB available memory on the node where the printing process lives
------------------
     ethr =  8.37E-11,  avg # of iterations =  5.0

     negative rho (up, down):  1.863E-01 0.000E+00

     total cpu time spent up to now is       28.7 secs

     total energy              =      -2.29487445 Ry
     estimated scf accuracy    <       0.00000098 Ry

     iteration # 53     ecut=    15.00 Ry     beta= 0.70
     Davidson diagonalization with overlap

---- Real-time Memory Report at c_bands before calling an iterative solver
           208 MiB given to the printing process from OS
             0 MiB allocation reported by mallinfo(arena+hblkhd)
           361 MiB available memory on the node where the printing process lives
------------------
     ethr =  8.37E-11,  avg # of iterations =  5.0

     negative rho (up, down):  1.862E-01 0.000E+00

     total cpu time spent up to now is       29.1 secs

     total energy              =      -2.29486354 Ry
     estimated scf accuracy    <       0.00000009 Ry

     iteration # 54     ecut=    15.00 Ry     beta= 0.70
     Davidson diagonalization with overlap

---- Real-time Memory Report at c_bands before calling an iterative solver
           208 MiB given to the printing process from OS
             0 MiB allocation reported by mallinfo(arena+hblkhd)
           361 MiB available memory on the node where the printing process lives
------------------
     ethr =  8.37E-11,  avg # of iterations =  4.0

     negative rho (up, down):  1.863E-01 0.000E+00

     total cpu time spent up to now is       29.5 secs

     total energy              =      -2.29486725 Ry
     estimated scf accuracy    <       0.00000005 Ry

     iteration # 55     ecut=    15.00 Ry     beta= 0.70
     Davidson diagonalization with overlap

---- Real-time Memory Report at c_bands before calling an iterative solver
           208 MiB given to the printing process from OS
             0 MiB allocation reported by mallinfo(arena+hblkhd)
           361 MiB available memory on the node where the printing process lives
------------------
     ethr =  8.37E-11,  avg # of iterations =  4.0

     negative rho (up, down):  1.863E-01 0.000E+00

     total cpu time spent up to now is       29.9 secs

     total energy              =      -2.29485440 Ry
     estimated scf accuracy    <       0.00000013 Ry

     iteration # 56     ecut=    15.00 Ry     beta= 0.70
     Davidson diagonalization with overlap

---- Real-time Memory Report at c_bands before calling an iterative solver
           208 MiB given to the printing process from OS
             0 MiB allocation reported by mallinfo(arena+hblkhd)
           361 MiB available memory on the node where the printing process lives
------------------
     ethr =  8.37E-11,  avg # of iterations =  4.0

     negative rho (up, down):  1.863E-01 0.000E+00

     total cpu time spent up to now is       30.3 secs

     total energy              =      -2.29485331 Ry
     estimated scf accuracy    <       0.00000006 Ry

     iteration # 57     ecut=    15.00 Ry     beta= 0.70
     Davidson diagonalization with overlap

---- Real-time Memory Report at c_bands before calling an iterative solver
           208 MiB given to the printing process from OS
             0 MiB allocation reported by mallinfo(arena+hblkhd)
           361 MiB available memory on the node where the printing process lives
------------------
     ethr =  8.37E-11,  avg # of iterations =  4.0

     negative rho (up, down):  1.863E-01 0.000E+00

     total cpu time spent up to now is       30.7 secs

     total energy              =      -2.29480983 Ry
     estimated scf accuracy    <       0.00000004 Ry

     iteration # 58     ecut=    15.00 Ry     beta= 0.70
     Davidson diagonalization with overlap

---- Real-time Memory Report at c_bands before calling an iterative solver
           208 MiB given to the printing process from OS
             0 MiB allocation reported by mallinfo(arena+hblkhd)
           361 MiB available memory on the node where the printing process lives
------------------
     ethr =  8.37E-11,  avg # of iterations =  4.0

     negative rho (up, down):  1.862E-01 0.000E+00

     total cpu time spent up to now is       31.1 secs

     total energy              =      -2.29486860 Ry
     estimated scf accuracy    <       0.00000010 Ry

     iteration # 59     ecut=    15.00 Ry     beta= 0.70
     Davidson diagonalization with overlap

---- Real-time Memory Report at c_bands before calling an iterative solver
           208 MiB given to the printing process from OS
             0 MiB allocation reported by mallinfo(arena+hblkhd)
           361 MiB available memory on the node where the printing process lives
------------------
     ethr =  8.37E-11,  avg # of iterations =  4.0

     negative rho (up, down):  1.863E-01 0.000E+00

     total cpu time spent up to now is       31.6 secs

     total energy              =      -2.29483774 Ry
     estimated scf accuracy    <       0.00000004 Ry

     iteration # 60     ecut=    15.00 Ry     beta= 0.70
     Davidson diagonalization with overlap

---- Real-time Memory Report at c_bands before calling an iterative solver
           208 MiB given to the printing process from OS
             0 MiB allocation reported by mallinfo(arena+hblkhd)
           361 MiB available memory on the node where the printing process lives
------------------
     ethr =  8.37E-11,  avg # of iterations =  4.0

     negative rho (up, down):  1.862E-01 0.000E+00

     total cpu time spent up to now is       32.0 secs

     total energy              =      -2.29488105 Ry
     estimated scf accuracy    <       0.00000018 Ry

     iteration # 61     ecut=    15.00 Ry     beta= 0.70
     Davidson diagonalization with overlap

---- Real-time Memory Report at c_bands before calling an iterative solver
           208 MiB given to the printing process from OS
             0 MiB allocation reported by mallinfo(arena+hblkhd)
           361 MiB available memory on the node where the printing process lives
------------------
     ethr =  8.37E-11,  avg # of iterations =  4.0

     negative rho (up, down):  1.862E-01 0.000E+00

     total cpu time spent up to now is       32.4 secs

     total energy              =      -2.29487590 Ry
     estimated scf accuracy    <       0.00000002 Ry

     iteration # 62     ecut=    15.00 Ry     beta= 0.70
     Davidson diagonalization with overlap

---- Real-time Memory Report at c_bands before calling an iterative solver
           208 MiB given to the printing process from OS
             0 MiB allocation reported by mallinfo(arena+hblkhd)
           361 MiB available memory on the node where the printing process lives
------------------
     ethr =  8.37E-11,  avg # of iterations =  3.0

     negative rho (up, down):  1.862E-01 0.000E+00

     total cpu time spent up to now is       32.8 secs

     total energy              =      -2.29486554 Ry
     estimated scf accuracy    <       0.00000003 Ry

     iteration # 63     ecut=    15.00 Ry     beta= 0.70
     Davidson diagonalization with overlap

---- Real-time Memory Report at c_bands before calling an iterative solver
           208 MiB given to the printing process from OS
             0 MiB allocation reported by mallinfo(arena+hblkhd)
           361 MiB available memory on the node where the printing process lives
------------------
     ethr =  8.37E-11,  avg # of iterations =  4.0

     negative rho (up, down):  1.862E-01 0.000E+00

     total cpu time spent up to now is       33.3 secs

     total energy              =      -2.29488296 Ry
     estimated scf accuracy    <          3.4E-09 Ry

     iteration # 64     ecut=    15.00 Ry     beta= 0.70
     Davidson diagonalization with overlap

---- Real-time Memory Report at c_bands before calling an iterative solver
           208 MiB given to the printing process from OS
             0 MiB allocation reported by mallinfo(arena+hblkhd)
           361 MiB available memory on the node where the printing process lives
------------------
     ethr =  8.37E-11,  avg # of iterations =  4.0

     negative rho (up, down):  1.862E-01 0.000E+00

     total cpu time spent up to now is       33.7 secs

     total energy              =      -2.29487889 Ry
     estimated scf accuracy    <       0.00000004 Ry

     iteration # 65     ecut=    15.00 Ry     beta= 0.70
     Davidson diagonalization with overlap

---- Real-time Memory Report at c_bands before calling an iterative solver
           208 MiB given to the printing process from OS
             0 MiB allocation reported by mallinfo(arena+hblkhd)
           361 MiB available memory on the node where the printing process lives
------------------
     ethr =  8.37E-11,  avg # of iterations =  2.0

     negative rho (up, down):  1.863E-01 0.000E+00

     total cpu time spent up to now is       34.0 secs

     total energy              =      -2.29484844 Ry
     estimated scf accuracy    <       0.00000002 Ry

     iteration # 66     ecut=    15.00 Ry     beta= 0.70
     Davidson diagonalization with overlap

---- Real-time Memory Report at c_bands before calling an iterative solver
           208 MiB given to the printing process from OS
             0 MiB allocation reported by mallinfo(arena+hblkhd)
           361 MiB available memory on the node where the printing process lives
------------------
     ethr =  8.37E-11,  avg # of iterations =  4.0

     negative rho (up, down):  1.863E-01 0.000E+00

     total cpu time spent up to now is       34.5 secs

     total energy              =      -2.29485109 Ry
     estimated scf accuracy    <       0.00000006 Ry

     iteration # 67     ecut=    15.00 Ry     beta= 0.70
     Davidson diagonalization with overlap

---- Real-time Memory Report at c_bands before calling an iterative solver
           208 MiB given to the printing process from OS
             0 MiB allocation reported by mallinfo(arena+hblkhd)
           361 MiB available memory on the node where the printing process lives
------------------
     ethr =  8.37E-11,  avg # of iterations =  2.0

     negative rho (up, down):  1.862E-01 0.000E+00

     total cpu time spent up to now is       34.8 secs

     total energy              =      -2.29486716 Ry
     estimated scf accuracy    <       0.00000006 Ry

     iteration # 68     ecut=    15.00 Ry     beta= 0.70
     Davidson diagonalization with overlap

---- Real-time Memory Report at c_bands before calling an iterative solver
           208 MiB given to the printing process from OS
             0 MiB allocation reported by mallinfo(arena+hblkhd)
           361 MiB available memory on the node where the printing process lives
------------------
     ethr =  8.37E-11,  avg # of iterations =  4.0

     negative rho (up, down):  1.863E-01 0.000E+00

     total cpu time spent up to now is       35.3 secs

     total energy              =      -2.29485241 Ry
     estimated scf accuracy    <       0.00000006 Ry

     iteration # 69     ecut=    15.00 Ry     beta= 0.70
     Davidson diagonalization with overlap

---- Real-time Memory Report at c_bands before calling an iterative solver
           208 MiB given to the printing process from OS
             0 MiB allocation reported by mallinfo(arena+hblkhd)
           361 MiB available memory on the node where the printing process lives
------------------
     ethr =  8.37E-11,  avg # of iterations =  5.0

     negative rho (up, down):  1.862E-01 0.000E+00

     total cpu time spent up to now is       35.7 secs

     total energy              =      -2.29486662 Ry
     estimated scf accuracy    <       0.00000013 Ry

     iteration # 70     ecut=    15.00 Ry     beta= 0.70
     Davidson diagonalization with overlap

---- Real-time Memory Report at c_bands before calling an iterative solver
           208 MiB given to the printing process from OS
             0 MiB allocation reported by mallinfo(arena+hblkhd)
           361 MiB available memory on the node where the printing process lives
------------------
     ethr =  8.37E-11,  avg # of iterations =  4.0

     negative rho (up, down):  1.862E-01 0.000E+00

     total cpu time spent up to now is       36.1 secs

     total energy              =      -2.29485215 Ry
     estimated scf accuracy    <          1.8E-09 Ry

     iteration # 71     ecut=    15.00 Ry     beta= 0.70
     Davidson diagonalization with overlap

---- Real-time Memory Report at c_bands before calling an iterative solver
           208 MiB given to the printing process from OS
             0 MiB allocation reported by mallinfo(arena+hblkhd)
           361 MiB available memory on the node where the printing process lives
------------------
     ethr =  8.37E-11,  avg # of iterations =  4.0

     negative rho (up, down):  1.862E-01 0.000E+00

     total cpu time spent up to now is       36.5 secs

     total energy              =      -2.29487201 Ry
     estimated scf accuracy    <       0.00000017 Ry

     iteration # 72     ecut=    15.00 Ry     beta= 0.70
     Davidson diagonalization with overlap

---- Real-time Memory Report at c_bands before calling an iterative solver
           208 MiB given to the printing process from OS
             0 MiB allocation reported by mallinfo(arena+hblkhd)
           361 MiB available memory on the node where the printing process lives
------------------
     ethr =  8.37E-11,  avg # of iterations =  5.0

     negative rho (up, down):  1.862E-01 0.000E+00

     total cpu time spent up to now is       36.9 secs

     total energy              =      -2.29486682 Ry
     estimated scf accuracy    <          2.3E-09 Ry

     iteration # 73     ecut=    15.00 Ry     beta= 0.70
     Davidson diagonalization with overlap

---- Real-time Memory Report at c_bands before calling an iterative solver
           208 MiB given to the printing process from OS
             0 MiB allocation reported by mallinfo(arena+hblkhd)
           361 MiB available memory on the node where the printing process lives
------------------
     ethr =  8.37E-11,  avg # of iterations =  4.0

     negative rho (up, down):  1.863E-01 0.000E+00

     total cpu time spent up to now is       37.4 secs

     total energy              =      -2.29485772 Ry
     estimated scf accuracy    <       0.00000002 Ry

     iteration # 74     ecut=    15.00 Ry     beta= 0.70
     Davidson diagonalization with overlap

---- Real-time Memory Report at c_bands before calling an iterative solver
           208 MiB given to the printing process from OS
             0 MiB allocation reported by mallinfo(arena+hblkhd)
           361 MiB available memory on the node where the printing process lives
------------------
     ethr =  8.37E-11,  avg # of iterations =  5.0

     negative rho (up, down):  1.863E-01 0.000E+00

     total cpu time spent up to now is       37.8 secs

     total energy              =      -2.29485509 Ry
     estimated scf accuracy    <       0.00000006 Ry

     iteration # 75     ecut=    15.00 Ry     beta= 0.70
     Davidson diagonalization with overlap

---- Real-time Memory Report at c_bands before calling an iterative solver
           208 MiB given to the printing process from OS
             0 MiB allocation reported by mallinfo(arena+hblkhd)
           361 MiB available memory on the node where the printing process lives
------------------
     ethr =  8.37E-11,  avg # of iterations =  3.0

     negative rho (up, down):  1.862E-01 0.000E+00

     total cpu time spent up to now is       38.2 secs

     total energy              =      -2.29489138 Ry
     estimated scf accuracy    <       0.00000007 Ry

     iteration # 76     ecut=    15.00 Ry     beta= 0.70
     Davidson diagonalization with overlap

---- Real-time Memory Report at c_bands before calling an iterative solver
           208 MiB given to the printing process from OS
             0 MiB allocation reported by mallinfo(arena+hblkhd)
           361 MiB available memory on the node where the printing process lives
------------------
     ethr =  8.37E-11,  avg # of iterations =  5.0

     negative rho (up, down):  1.862E-01 0.000E+00

     total cpu time spent up to now is       38.6 secs

     total energy              =      -2.29489304 Ry
     estimated scf accuracy    <          4.8E-09 Ry

     iteration # 77     ecut=    15.00 Ry     beta= 0.70
     Davidson diagonalization with overlap

---- Real-time Memory Report at c_bands before calling an iterative solver
           208 MiB given to the printing process from OS
             0 MiB allocation reported by mallinfo(arena+hblkhd)
           361 MiB available memory on the node where the printing process lives
------------------
     ethr =  8.37E-11,  avg # of iterations =  3.0

     negative rho (up, down):  1.862E-01 0.000E+00

     total cpu time spent up to now is       39.0 secs

     total energy              =      -2.29490123 Ry
     estimated scf accuracy    <          3.1E-09 Ry

     iteration # 78     ecut=    15.00 Ry     beta= 0.70
     Davidson diagonalization with overlap

---- Real-time Memory Report at c_bands before calling an iterative solver
           208 MiB given to the printing process from OS
             0 MiB allocation reported by mallinfo(arena+hblkhd)
           361 MiB available memory on the node where the printing process lives
------------------
     ethr =  8.37E-11,  avg # of iterations =  4.0

     negative rho (up, down):  1.862E-01 0.000E+00

     total cpu time spent up to now is       39.4 secs

     total energy              =      -2.29487309 Ry
     estimated scf accuracy    <       0.00000006 Ry

     iteration # 79     ecut=    15.00 Ry     beta= 0.70
     Davidson diagonalization with overlap

---- Real-time Memory Report at c_bands before calling an iterative solver
           208 MiB given to the printing process from OS
             0 MiB allocation reported by mallinfo(arena+hblkhd)
           361 MiB available memory on the node where the printing process lives
------------------
     ethr =  8.37E-11,  avg # of iterations =  4.0

     negative rho (up, down):  1.862E-01 0.000E+00

     total cpu time spent up to now is       39.8 secs

     total energy              =      -2.29487024 Ry
     estimated scf accuracy    <       0.00000001 Ry

     iteration # 80     ecut=    15.00 Ry     beta= 0.70
     Davidson diagonalization with overlap

---- Real-time Memory Report at c_bands before calling an iterative solver
           208 MiB given to the printing process from OS
             0 MiB allocation reported by mallinfo(arena+hblkhd)
           361 MiB available memory on the node where the printing process lives
------------------
     ethr =  8.37E-11,  avg # of iterations =  2.0

     negative rho (up, down):  1.862E-01 0.000E+00

     total cpu time spent up to now is       40.2 secs

     total energy              =      -2.29487397 Ry
     estimated scf accuracy    <       0.00000001 Ry

     iteration # 81     ecut=    15.00 Ry     beta= 0.70
     Davidson diagonalization with overlap

---- Real-time Memory Report at c_bands before calling an iterative solver
           208 MiB given to the printing process from OS
             0 MiB allocation reported by mallinfo(arena+hblkhd)
           361 MiB available memory on the node where the printing process lives
------------------
     ethr =  8.37E-11,  avg # of iterations =  3.0

     negative rho (up, down):  1.863E-01 0.000E+00

     total cpu time spent up to now is       40.6 secs

     total energy              =      -2.29484787 Ry
     estimated scf accuracy    <       0.00000001 Ry

     iteration # 82     ecut=    15.00 Ry     beta= 0.70
     Davidson diagonalization with overlap

---- Real-time Memory Report at c_bands before calling an iterative solver
           208 MiB given to the printing process from OS
             0 MiB allocation reported by mallinfo(arena+hblkhd)
           361 MiB available memory on the node where the printing process lives
------------------
     ethr =  8.37E-11,  avg # of iterations =  4.0

     negative rho (up, down):  1.863E-01 0.000E+00

     total cpu time spent up to now is       41.1 secs

     total energy              =      -2.29486808 Ry
     estimated scf accuracy    <       0.00000005 Ry

     iteration # 83     ecut=    15.00 Ry     beta= 0.70
     Davidson diagonalization with overlap

---- Real-time Memory Report at c_bands before calling an iterative solver
           208 MiB given to the printing process from OS
             0 MiB allocation reported by mallinfo(arena+hblkhd)
           361 MiB available memory on the node where the printing process lives
------------------
     ethr =  8.37E-11,  avg # of iterations =  4.0

     negative rho (up, down):  1.862E-01 0.000E+00

     total cpu time spent up to now is       41.5 secs

     total energy              =      -2.29487080 Ry
     estimated scf accuracy    <          8.4E-09 Ry

     iteration # 84     ecut=    15.00 Ry     beta= 0.70
     Davidson diagonalization with overlap

---- Real-time Memory Report at c_bands before calling an iterative solver
           208 MiB given to the printing process from OS
             0 MiB allocation reported by mallinfo(arena+hblkhd)
           361 MiB available memory on the node where the printing process lives
------------------
     ethr =  8.37E-11,  avg # of iterations =  3.0

     negative rho (up, down):  1.862E-01 0.000E+00

     total cpu time spent up to now is       41.9 secs

     total energy              =      -2.29486001 Ry
     estimated scf accuracy    <          6.6E-09 Ry

     iteration # 85     ecut=    15.00 Ry     beta= 0.70
     Davidson diagonalization with overlap

---- Real-time Memory Report at c_bands before calling an iterative solver
           208 MiB given to the printing process from OS
             0 MiB allocation reported by mallinfo(arena+hblkhd)
           361 MiB available memory on the node where the printing process lives
------------------
     ethr =  8.37E-11,  avg # of iterations =  5.0

     negative rho (up, down):  1.862E-01 0.000E+00

     total cpu time spent up to now is       42.3 secs

     total energy              =      -2.29487762 Ry
     estimated scf accuracy    <       0.00000009 Ry

     iteration # 86     ecut=    15.00 Ry     beta= 0.70
     Davidson diagonalization with overlap

---- Real-time Memory Report at c_bands before calling an iterative solver
           208 MiB given to the printing process from OS
             0 MiB allocation reported by mallinfo(arena+hblkhd)
           361 MiB available memory on the node where the printing process lives
------------------
     ethr =  8.37E-11,  avg # of iterations =  5.0

     negative rho (up, down):  1.862E-01 0.000E+00

     total cpu time spent up to now is       42.7 secs

     total energy              =      -2.29486015 Ry
     estimated scf accuracy    <       0.00000004 Ry

     iteration # 87     ecut=    15.00 Ry     beta= 0.70
     Davidson diagonalization with overlap

---- Real-time Memory Report at c_bands before calling an iterative solver
           208 MiB given to the printing process from OS
             0 MiB allocation reported by mallinfo(arena+hblkhd)
           361 MiB available memory on the node where the printing process lives
------------------
     ethr =  8.37E-11,  avg # of iterations =  4.0

     negative rho (up, down):  1.862E-01 0.000E+00

     total cpu time spent up to now is       43.1 secs

     total energy              =      -2.29487270 Ry
     estimated scf accuracy    <       0.00000003 Ry

     iteration # 88     ecut=    15.00 Ry     beta= 0.70
     Davidson diagonalization with overlap

---- Real-time Memory Report at c_bands before calling an iterative solver
           208 MiB given to the printing process from OS
             0 MiB allocation reported by mallinfo(arena+hblkhd)
           362 MiB available memory on the node where the printing process lives
------------------
     ethr =  8.37E-11,  avg # of iterations =  4.0

     negative rho (up, down):  1.862E-01 0.000E+00

     total cpu time spent up to now is       43.6 secs

     total energy              =      -2.29486207 Ry
     estimated scf accuracy    <          3.2E-09 Ry

     iteration # 89     ecut=    15.00 Ry     beta= 0.70
     Davidson diagonalization with overlap

---- Real-time Memory Report at c_bands before calling an iterative solver
           208 MiB given to the printing process from OS
             0 MiB allocation reported by mallinfo(arena+hblkhd)
           362 MiB available memory on the node where the printing process lives
------------------
     ethr =  8.37E-11,  avg # of iterations =  4.0

     negative rho (up, down):  1.862E-01 0.000E+00

     total cpu time spent up to now is       44.0 secs

     total energy              =      -2.29485608 Ry
     estimated scf accuracy    <       0.00000004 Ry

     iteration # 90     ecut=    15.00 Ry     beta= 0.70
     Davidson diagonalization with overlap

---- Real-time Memory Report at c_bands before calling an iterative solver
           208 MiB given to the printing process from OS
             0 MiB allocation reported by mallinfo(arena+hblkhd)
           362 MiB available memory on the node where the printing process lives
------------------
     ethr =  8.37E-11,  avg # of iterations =  4.0

     negative rho (up, down):  1.862E-01 0.000E+00

     total cpu time spent up to now is       44.4 secs

     total energy              =      -2.29486793 Ry
     estimated scf accuracy    <       0.00000004 Ry

     iteration # 91     ecut=    15.00 Ry     beta= 0.70
     Davidson diagonalization with overlap

---- Real-time Memory Report at c_bands before calling an iterative solver
           208 MiB given to the printing process from OS
             0 MiB allocation reported by mallinfo(arena+hblkhd)
           362 MiB available memory on the node where the printing process lives
------------------
     ethr =  8.37E-11,  avg # of iterations =  4.0

     negative rho (up, down):  1.862E-01 0.000E+00

     total cpu time spent up to now is       44.8 secs

     total energy              =      -2.29485951 Ry
     estimated scf accuracy    <       0.00000002 Ry

     iteration # 92     ecut=    15.00 Ry     beta= 0.70
     Davidson diagonalization with overlap

---- Real-time Memory Report at c_bands before calling an iterative solver
           208 MiB given to the printing process from OS
             0 MiB allocation reported by mallinfo(arena+hblkhd)
           362 MiB available memory on the node where the printing process lives
------------------
     ethr =  8.37E-11,  avg # of iterations =  4.0

     negative rho (up, down):  1.863E-01 0.000E+00

     total cpu time spent up to now is       45.2 secs

     total energy              =      -2.29486357 Ry
     estimated scf accuracy    <       0.00000004 Ry

     iteration # 93     ecut=    15.00 Ry     beta= 0.70
     Davidson diagonalization with overlap

---- Real-time Memory Report at c_bands before calling an iterative solver
           208 MiB given to the printing process from OS
             0 MiB allocation reported by mallinfo(arena+hblkhd)
           362 MiB available memory on the node where the printing process lives
------------------
     ethr =  8.37E-11,  avg # of iterations =  4.0

     negative rho (up, down):  1.863E-01 0.000E+00

     total cpu time spent up to now is       45.6 secs

     total energy              =      -2.29485289 Ry
     estimated scf accuracy    <       0.00000001 Ry

     iteration # 94     ecut=    15.00 Ry     beta= 0.70
     Davidson diagonalization with overlap

---- Real-time Memory Report at c_bands before calling an iterative solver
           208 MiB given to the printing process from OS
             0 MiB allocation reported by mallinfo(arena+hblkhd)
           362 MiB available memory on the node where the printing process lives
------------------
     ethr =  8.37E-11,  avg # of iterations =  4.0

     negative rho (up, down):  1.862E-01 0.000E+00

     total cpu time spent up to now is       46.0 secs

     total energy              =      -2.29486036 Ry
     estimated scf accuracy    <       0.00000004 Ry

     iteration # 95     ecut=    15.00 Ry     beta= 0.70
     Davidson diagonalization with overlap

---- Real-time Memory Report at c_bands before calling an iterative solver
           208 MiB given to the printing process from OS
             0 MiB allocation reported by mallinfo(arena+hblkhd)
           362 MiB available memory on the node where the printing process lives
------------------
     ethr =  8.37E-11,  avg # of iterations =  4.0

     negative rho (up, down):  1.862E-01 0.000E+00

     total cpu time spent up to now is       46.4 secs

     total energy              =      -2.29487715 Ry
     estimated scf accuracy    <       0.00000004 Ry

     iteration # 96     ecut=    15.00 Ry     beta= 0.70
     Davidson diagonalization with overlap

---- Real-time Memory Report at c_bands before calling an iterative solver
           208 MiB given to the printing process from OS
             0 MiB allocation reported by mallinfo(arena+hblkhd)
           362 MiB available memory on the node where the printing process lives
------------------
     ethr =  8.37E-11,  avg # of iterations =  5.0

     negative rho (up, down):  1.862E-01 0.000E+00

     total cpu time spent up to now is       46.9 secs

     total energy              =      -2.29486372 Ry
     estimated scf accuracy    <       0.00000002 Ry

     iteration # 97     ecut=    15.00 Ry     beta= 0.70
     Davidson diagonalization with overlap

---- Real-time Memory Report at c_bands before calling an iterative solver
           208 MiB given to the printing process from OS
             0 MiB allocation reported by mallinfo(arena+hblkhd)
           362 MiB available memory on the node where the printing process lives
------------------
     ethr =  8.37E-11,  avg # of iterations =  4.0

     negative rho (up, down):  1.862E-01 0.000E+00

     total cpu time spent up to now is       47.3 secs

     total energy              =      -2.29490609 Ry
     estimated scf accuracy    <       0.00000016 Ry

     iteration # 98     ecut=    15.00 Ry     beta= 0.70
     Davidson diagonalization with overlap

---- Real-time Memory Report at c_bands before calling an iterative solver
           208 MiB given to the printing process from OS
             0 MiB allocation reported by mallinfo(arena+hblkhd)
           362 MiB available memory on the node where the printing process lives
------------------
     ethr =  8.37E-11,  avg # of iterations =  5.0

     negative rho (up, down):  1.862E-01 0.000E+00

     total cpu time spent up to now is       47.7 secs

     total energy              =      -2.29491181 Ry
     estimated scf accuracy    <       0.00000007 Ry

     iteration # 99     ecut=    15.00 Ry     beta= 0.70
     Davidson diagonalization with overlap

---- Real-time Memory Report at c_bands before calling an iterative solver
           208 MiB given to the printing process from OS
             0 MiB allocation reported by mallinfo(arena+hblkhd)
           362 MiB available memory on the node where the printing process lives
------------------
     ethr =  8.37E-11,  avg # of iterations =  4.0

     negative rho (up, down):  1.862E-01 0.000E+00

     total cpu time spent up to now is       48.1 secs

     total energy              =      -2.29491323 Ry
     estimated scf accuracy    <       0.00000016 Ry

     iteration #100     ecut=    15.00 Ry     beta= 0.70
     Davidson diagonalization with overlap

---- Real-time Memory Report at c_bands before calling an iterative solver
           208 MiB given to the printing process from OS
             0 MiB allocation reported by mallinfo(arena+hblkhd)
           362 MiB available memory on the node where the printing process lives
------------------
     ethr =  8.37E-11,  avg # of iterations =  4.0

     negative rho (up, down):  1.862E-01 0.000E+00

     total cpu time spent up to now is       48.5 secs

     total energy              =      -2.29491105 Ry
     estimated scf accuracy    <       0.00000010 Ry

     End of self-consistent calculation

     convergence NOT achieved after 100 iterations: stopping

     Writing config to output data dir ./.save/
     Message from routine punch:
     wavefunctions written to file

     init_run     :      0.35s CPU      0.39s WALL (       1 calls)
     electrons    :     47.29s CPU     47.43s WALL (       3 calls)
     update_pot   :      0.48s CPU      0.50s WALL (       2 calls)
     forces       :      0.17s CPU      0.18s WALL (       2 calls)

     Called by init_run:
     wfcinit      :      0.03s CPU      0.03s WALL (       1 calls)
     wfcinit:atom :      0.00s CPU      0.00s WALL (       1 calls)
     wfcinit:wfcr :      0.03s CPU      0.03s WALL (       1 calls)
     potinit      :      0.21s CPU      0.23s WALL (       1 calls)
     hinit0       :      0.02s CPU      0.02s WALL (       1 calls)

     Called by electrons:
     c_bands      :     10.83s CPU     10.87s WALL (     116 calls)
     sum_band     :      5.32s CPU      5.33s WALL (     116 calls)
     v_of_rho     :     24.04s CPU     24.08s WALL (     119 calls)
     v_h          :      1.36s CPU      1.37s WALL (     119 calls)
     v_xc         :     22.68s CPU     22.71s WALL (     119 calls)
     newd         :      1.74s CPU      1.75s WALL (     119 calls)
     mix_rho      :      5.49s CPU      5.53s WALL (     116 calls)

     Called by c_bands:
     init_us_2    :      0.16s CPU      0.16s WALL (     233 calls)
     init_us_2:cp :      0.16s CPU      0.16s WALL (     233 calls)
     cegterg      :     10.72s CPU     10.75s WALL (     116 calls)

     Called by sum_band:
     sum_band:wei :      0.00s CPU      0.00s WALL (     116 calls)
     sum_band:loo :      1.56s CPU      1.56s WALL (     116 calls)
     sum_band:buf :      0.00s CPU      0.00s WALL (     116 calls)
     sum_band:ini :      0.08s CPU      0.08s WALL (     116 calls)
     sum_band:cal :      0.02s CPU      0.02s WALL (     116 calls)
     sum_band:bec :      0.00s CPU      0.00s WALL (     116 calls)
     addusdens    :      0.49s CPU      0.50s WALL (     116 calls)
     addusd:skk   :      0.15s CPU      0.15s WALL (     116 calls)
     addusd:dgemm :      0.10s CPU      0.10s WALL (     116 calls)
     addusd:qvan2 :      0.12s CPU      0.13s WALL (     116 calls)

     Called by *egterg:
     cdiaghg      :      0.01s CPU      0.01s WALL (     548 calls)
     cegterg:over :      0.14s CPU      0.14s WALL (     434 calls)
     cegterg:upda :      0.11s CPU      0.11s WALL (     434 calls)
     cegterg:last :      0.22s CPU      0.22s WALL (     320 calls)
     h_psi        :     10.03s CPU     10.06s WALL (     551 calls)
     s_psi        :      0.05s CPU      0.05s WALL (     551 calls)
     g_psi        :      0.05s CPU      0.05s WALL (     434 calls)

     Called by h_psi:
     h_psi:calbec :      0.08s CPU      0.08s WALL (     551 calls)
     vloc_psi     :      9.86s CPU      9.89s WALL (     551 calls)
     add_vuspsi   :      0.06s CPU      0.06s WALL (     551 calls)

     General routines
     calbec       :      0.10s CPU      0.10s WALL (     675 calls)
     fft          :     11.89s CPU     11.90s WALL (    1315 calls)
     ffts         :      1.08s CPU      1.09s WALL (     116 calls)
     fftw         :     10.24s CPU     10.26s WALL (    1830 calls)
     davcio       :      0.01s CPU      0.01s WALL (      19 calls)


     PWSCF        :     48.39s CPU     48.60s WALL


   This run was terminated on:   3: 7:56  28Feb2022            

=------------------------------------------------------------------------------=
   JOB DONE.
=------------------------------------------------------------------------------=
