
     Program PWSCF v.7.0 starts on 28Feb2022 at 22:19:56 

     This program is part of the open-source Quantum ESPRESSO suite
     for quantum simulation of materials; please cite
         "P. Giannozzi et al., J. Phys.:Condens. Matter 21 395502 (2009);
         "P. Giannozzi et al., J. Phys.:Condens. Matter 29 465901 (2017);
         "P. Giannozzi et al., J. Chem. Phys. 152 154105 (2020);
          URL http://www.quantum-espresso.org", 
     in publications or presentations arising from this work. More details at
     http://www.quantum-espresso.org/quote

     Serial version
     1283 MiB available memory on the printing compute node when the environment starts

     Waiting for input...
     Reading input from standard input

     Current dimensions of program PWSCF are:
     Max number of different atomic species (ntypx) = 10
     Max number of k-points (npk) =  40000
     Max angular momentum in pseudopotentials (lmaxx) =  4

    ============================================================
    |  pseudopotential report for atomic species:  1           |
    |        pseudo potential version   7   3   2              |
    ------------------------------------------------------------
    |  hydrogen            PBE                  exchange-corr  |
    |  z =   1.    zv( 1) =   1.    exfact =   5.00000         |
    |  ifpcor =  0           atomic energy =  -0.91772 Ry      |
    |  index    orbital      occupation    energy              |
    |    1        100           1.00       -0.48               |
    |  rinner =  0.5000                                        |
    |    new generation scheme:                                |
    |    nbeta =  1     kkbeta =  271     rcloc =    0.6000    |
    |    ibeta    l     epsilon   rcut                         |
    |      1       0      -0.48   0.80                         |
    ============================================================

     IMPORTANT: XC functional enforced from input :
     Exchange-correlation= BLYP
                           (   1   3   1   3   0   0   0)
     Any further DFT definition will be discarded
     Please, verify this is what you really want


     G-vector sticks info
     --------------------
     sticks:   dense  smooth     PW     G-vecs:    dense   smooth      PW
     Sum        2869    2869    793               115313   115313   17071

     Using Slab Decomposition



     bravais-lattice index     =            1
     lattice parameter (alat)  =      30.0000  a.u.
     unit-cell volume          =   27000.0000 (a.u.)^3
     number of atoms/cell      =            2
     number of atomic types    =            1
     number of electrons       =         2.00
     number of Kohn-Sham states=            2
     kinetic-energy cutoff     =      10.0000  Ry
     charge density cutoff     =      40.0000  Ry
     scf convergence threshold =      1.0E-08
     mixing beta               =       0.7000
     number of iterations used =            8  plain     mixing
     Exchange-correlation= BLYP
                           (   1   3   1   3   0   0   0)

     celldm(1)=  30.000000  celldm(2)=   0.000000  celldm(3)=   0.000000
     celldm(4)=   0.000000  celldm(5)=   0.000000  celldm(6)=   0.000000

     crystal axes: (cart. coord. in units of alat)
               a(1) = (   1.000000   0.000000   0.000000 )  
               a(2) = (   0.000000   1.000000   0.000000 )  
               a(3) = (   0.000000   0.000000   1.000000 )  

     reciprocal axes: (cart. coord. in units 2 pi/alat)
               b(1) = (  1.000000  0.000000  0.000000 )  
               b(2) = (  0.000000  1.000000  0.000000 )  
               b(3) = (  0.000000  0.000000  1.000000 )  


     PseudoPot. # 1 for hy read from file:
     /root/q-e/pseudo/H_US.van
     MD5 check sum: a9a9bfe98ff56cf4de197d71fc46bb44
     Pseudo is Ultrasoft, Zval =  1.0
     Generated by Vanderbilt code, v. 7.3.2
     Using radial grid of  399 points,  1 beta functions with: 
                l(1) =   0
     Q(r) pseudized with  8 coefficients,  rinner =    0.500

     atomic species   valence    mass     pseudopotential
        H              1.00     1.00784     hy( 1.00)

      8 Sym. Ops. (no inversion) found


                                    s                        frac. trans.

      isym =  1     identity                                     

 cryst.   s( 1) = (     1          0          0      )
                  (     0          1          0      )
                  (     0          0          1      )

 cart.    s( 1) = (  1.0000000  0.0000000  0.0000000 )
                  (  0.0000000  1.0000000  0.0000000 )
                  (  0.0000000  0.0000000  1.0000000 )


      isym =  2     180 deg rotation - cart. axis [1,0,0]        

 cryst.   s( 2) = (     1          0          0      )
                  (     0         -1          0      )
                  (     0          0         -1      )

 cart.    s( 2) = (  1.0000000  0.0000000  0.0000000 )
                  (  0.0000000 -1.0000000  0.0000000 )
                  (  0.0000000  0.0000000 -1.0000000 )


      isym =  3      90 deg rotation - cart. axis [-1,0,0]       

 cryst.   s( 3) = (     1          0          0      )
                  (     0          0         -1      )
                  (     0          1          0      )

 cart.    s( 3) = (  1.0000000  0.0000000  0.0000000 )
                  (  0.0000000  0.0000000  1.0000000 )
                  (  0.0000000 -1.0000000  0.0000000 )


      isym =  4      90 deg rotation - cart. axis [1,0,0]        

 cryst.   s( 4) = (     1          0          0      )
                  (     0          0          1      )
                  (     0         -1          0      )

 cart.    s( 4) = (  1.0000000  0.0000000  0.0000000 )
                  (  0.0000000  0.0000000 -1.0000000 )
                  (  0.0000000  1.0000000  0.0000000 )


      isym =  5     inv. 180 deg rotation - cart. axis [0,0,1]   

 cryst.   s( 5) = (     1          0          0      )
                  (     0          1          0      )
                  (     0          0         -1      )

 cart.    s( 5) = (  1.0000000  0.0000000  0.0000000 )
                  (  0.0000000  1.0000000  0.0000000 )
                  (  0.0000000  0.0000000 -1.0000000 )


      isym =  6     inv. 180 deg rotation - cart. axis [0,1,0]   

 cryst.   s( 6) = (     1          0          0      )
                  (     0         -1          0      )
                  (     0          0          1      )

 cart.    s( 6) = (  1.0000000  0.0000000  0.0000000 )
                  (  0.0000000 -1.0000000  0.0000000 )
                  (  0.0000000  0.0000000  1.0000000 )


      isym =  7     inv. 180 deg rotation - cart. axis [0,1,1]   

 cryst.   s( 7) = (     1          0          0      )
                  (     0          0         -1      )
                  (     0         -1          0      )

 cart.    s( 7) = (  1.0000000  0.0000000  0.0000000 )
                  (  0.0000000  0.0000000 -1.0000000 )
                  (  0.0000000 -1.0000000  0.0000000 )


      isym =  8     inv. 180 deg rotation - cart. axis [0,1,-1]  

 cryst.   s( 8) = (     1          0          0      )
                  (     0          0          1      )
                  (     0          1          0      )

 cart.    s( 8) = (  1.0000000  0.0000000  0.0000000 )
                  (  0.0000000  0.0000000  1.0000000 )
                  (  0.0000000  1.0000000  0.0000000 )


     point group C_4v (4mm) 
     there are  5 classes
     the character table:

       E     2C4   C2    2s_v  2s_d 
A_1    1.00  1.00  1.00  1.00  1.00
A_2    1.00  1.00  1.00 -1.00 -1.00
B_1    1.00 -1.00  1.00  1.00 -1.00
B_2    1.00 -1.00  1.00 -1.00  1.00
E      2.00  0.00 -2.00  0.00  0.00

     the symmetry operations in each class and the name of the first element:

     E        1
          identity                                               
     2C4      3    4
           90 deg rotation - cart. axis [-1,0,0]                 
     C2       2
          180 deg rotation - cart. axis [1,0,0]                  
     2s_v     5    6
          inv. 180 deg rotation - cart. axis [0,0,1]             
     2s_d     7    8
          inv. 180 deg rotation - cart. axis [0,1,1]             

   Cartesian axes

     site n.     atom                  positions (alat units)
         1           H   tau(   1) = (   0.0000000   0.0000000   0.0000000  )
         2           H   tau(   2) = (   0.3149544   0.0000000   0.0000000  )

   Crystallographic axes

     site n.     atom                  positions (cryst. coord.)
         1           H   tau(   1) = (  0.0000000  0.0000000  0.0000000  )
         2           H   tau(   2) = (  0.3149544  0.0000000  0.0000000  )

     number of k points=     1
                       cart. coord. in units 2pi/alat
        k(    1) = (  -0.5000000  -0.5000000  -0.5000000), wk =   2.0000000

                       cryst. coord.
        k(    1) = (  -0.5000000  -0.5000000  -0.5000000), wk =   2.0000000

     Dense  grid:   115313 G-vectors     FFT dimensions: (  64,  64,  64)

     Dynamical RAM for                 wfc:       0.44 MB

     Dynamical RAM for     wfc (w. buffer):       0.44 MB

     Dynamical RAM for           str. fact:       1.76 MB

     Dynamical RAM for           local pot:       0.00 MB

     Dynamical RAM for          nlocal pot:       0.44 MB

     Dynamical RAM for                qrad:       0.00 MB

     Dynamical RAM for          rho,v,vnew:      11.28 MB

     Dynamical RAM for               rhoin:       3.76 MB

     Dynamical RAM for            rho*nmix:      28.15 MB

     Dynamical RAM for           G-vectors:       7.48 MB

     Dynamical RAM for          h,s,v(r/c):       0.00 MB

     Dynamical RAM for          <psi|beta>:       0.00 MB

     Dynamical RAM for                 psi:       0.88 MB

     Dynamical RAM for                hpsi:       0.88 MB

     Dynamical RAM for                spsi:       0.88 MB

     Dynamical RAM for      wfcinit/wfcrot:       0.88 MB

     Dynamical RAM for           addusdens:      10.56 MB

     Estimated static dynamical RAM per process >      38.68 MB

     Estimated max dynamical RAM per process >      77.39 MB

     Initial potential from superposition of free atoms

     starting charge       2.0000, renormalised to       2.0000

     negative rho (up, down):  2.101E-01 0.000E+00
     Starting wfcs are    2 randomized atomic wfcs

     total cpu time spent up to now is        0.3 secs

     Self-consistent Calculation

     iteration #  1     ecut=    10.00 Ry     beta= 0.70
     Davidson diagonalization with overlap

---- Real-time Memory Report at c_bands before calling an iterative solver
            81 MiB given to the printing process from OS
             0 MiB allocation reported by mallinfo(arena+hblkhd)
          1235 MiB available memory on the node where the printing process lives
------------------
     ethr =  1.00E-02,  avg # of iterations =  1.0

     Threshold (ethr) on eigenvalues was too large:
     Diagonalizing with lowered threshold

     Davidson diagonalization with overlap

---- Real-time Memory Report at c_bands before calling an iterative solver
            81 MiB given to the printing process from OS
             0 MiB allocation reported by mallinfo(arena+hblkhd)
          1227 MiB available memory on the node where the printing process lives
------------------
     ethr =  2.48E-04,  avg # of iterations =  1.0

     negative rho (up, down):  1.816E-01 0.000E+00

     total cpu time spent up to now is        0.6 secs

     total energy              =      -1.78535498 Ry
     estimated scf accuracy    <       0.00490963 Ry

     iteration #  2     ecut=    10.00 Ry     beta= 0.70
     Davidson diagonalization with overlap

---- Real-time Memory Report at c_bands before calling an iterative solver
           102 MiB given to the printing process from OS
             0 MiB allocation reported by mallinfo(arena+hblkhd)
          1195 MiB available memory on the node where the printing process lives
------------------
     ethr =  2.45E-04,  avg # of iterations =  1.0

     negative rho (up, down):  1.812E-01 0.000E+00

     total cpu time spent up to now is        0.8 secs

     total energy              =      -1.78934238 Ry
     estimated scf accuracy    <       1.03778740 Ry

     iteration #  3     ecut=    10.00 Ry     beta= 0.70
     Davidson diagonalization with overlap

---- Real-time Memory Report at c_bands before calling an iterative solver
           105 MiB given to the printing process from OS
             0 MiB allocation reported by mallinfo(arena+hblkhd)
          1191 MiB available memory on the node where the printing process lives
------------------
     ethr =  2.45E-04,  avg # of iterations =  1.0

     negative rho (up, down):  1.772E-01 0.000E+00

     total cpu time spent up to now is        1.0 secs

     total energy              =      -1.75199283 Ry
     estimated scf accuracy    <       0.58019874 Ry

     iteration #  4     ecut=    10.00 Ry     beta= 0.70
     Davidson diagonalization with overlap

---- Real-time Memory Report at c_bands before calling an iterative solver
           108 MiB given to the printing process from OS
             0 MiB allocation reported by mallinfo(arena+hblkhd)
          1188 MiB available memory on the node where the printing process lives
------------------
     ethr =  2.45E-04,  avg # of iterations =  1.0

     negative rho (up, down):  1.711E-01 0.000E+00

     total cpu time spent up to now is        1.2 secs

     total energy              =      -1.87504500 Ry
     estimated scf accuracy    <       1.00935606 Ry

     iteration #  5     ecut=    10.00 Ry     beta= 0.70
     Davidson diagonalization with overlap

---- Real-time Memory Report at c_bands before calling an iterative solver
           112 MiB given to the printing process from OS
             0 MiB allocation reported by mallinfo(arena+hblkhd)
          1184 MiB available memory on the node where the printing process lives
------------------
     ethr =  2.45E-04,  avg # of iterations =  1.0

     negative rho (up, down):  1.741E-01 0.000E+00

     total cpu time spent up to now is        1.4 secs

     total energy              =      -1.88734217 Ry
     estimated scf accuracy    <       1.05936304 Ry

     iteration #  6     ecut=    10.00 Ry     beta= 0.70
     Davidson diagonalization with overlap

---- Real-time Memory Report at c_bands before calling an iterative solver
           116 MiB given to the printing process from OS
             0 MiB allocation reported by mallinfo(arena+hblkhd)
          1181 MiB available memory on the node where the printing process lives
------------------
     ethr =  2.45E-04,  avg # of iterations =  1.0

     negative rho (up, down):  1.761E-01 0.000E+00

     total cpu time spent up to now is        1.7 secs

     total energy              =      -1.86209792 Ry
     estimated scf accuracy    <       1.07854899 Ry

     iteration #  7     ecut=    10.00 Ry     beta= 0.70
     Davidson diagonalization with overlap

---- Real-time Memory Report at c_bands before calling an iterative solver
           119 MiB given to the printing process from OS
             0 MiB allocation reported by mallinfo(arena+hblkhd)
          1177 MiB available memory on the node where the printing process lives
------------------
     ethr =  2.45E-04,  avg # of iterations =  1.0

     negative rho (up, down):  1.753E-01 0.000E+00

     total cpu time spent up to now is        1.9 secs

     total energy              =      -1.85470790 Ry
     estimated scf accuracy    <       1.04130943 Ry

     iteration #  8     ecut=    10.00 Ry     beta= 0.70
     Davidson diagonalization with overlap

---- Real-time Memory Report at c_bands before calling an iterative solver
           123 MiB given to the printing process from OS
             0 MiB allocation reported by mallinfo(arena+hblkhd)
          1174 MiB available memory on the node where the printing process lives
------------------
     ethr =  2.45E-04,  avg # of iterations =  1.0

     negative rho (up, down):  1.753E-01 0.000E+00

     total cpu time spent up to now is        2.1 secs

     total energy              =      -1.85422302 Ry
     estimated scf accuracy    <       1.02970550 Ry

     iteration #  9     ecut=    10.00 Ry     beta= 0.70
     Davidson diagonalization with overlap

---- Real-time Memory Report at c_bands before calling an iterative solver
           126 MiB given to the printing process from OS
             0 MiB allocation reported by mallinfo(arena+hblkhd)
          1170 MiB available memory on the node where the printing process lives
------------------
     ethr =  2.45E-04,  avg # of iterations =  1.0

     negative rho (up, down):  1.748E-01 0.000E+00

     total cpu time spent up to now is        2.3 secs

     total energy              =      -1.86014753 Ry
     estimated scf accuracy    <       1.02789669 Ry

     iteration # 10     ecut=    10.00 Ry     beta= 0.70
     Davidson diagonalization with overlap

---- Real-time Memory Report at c_bands before calling an iterative solver
           130 MiB given to the printing process from OS
             0 MiB allocation reported by mallinfo(arena+hblkhd)
          1167 MiB available memory on the node where the printing process lives
------------------
     ethr =  2.45E-04,  avg # of iterations =  1.0

     negative rho (up, down):  1.751E-01 0.000E+00

     total cpu time spent up to now is        2.6 secs

     total energy              =      -1.85841207 Ry
     estimated scf accuracy    <       1.03654304 Ry

     iteration # 11     ecut=    10.00 Ry     beta= 0.70
     Davidson diagonalization with overlap

---- Real-time Memory Report at c_bands before calling an iterative solver
           130 MiB given to the printing process from OS
             0 MiB allocation reported by mallinfo(arena+hblkhd)
          1167 MiB available memory on the node where the printing process lives
------------------
     ethr =  2.45E-04,  avg # of iterations =  1.0

     negative rho (up, down):  1.756E-01 0.000E+00

     total cpu time spent up to now is        2.8 secs

     total energy              =      -1.84601373 Ry
     estimated scf accuracy    <       1.03480603 Ry

     iteration # 12     ecut=    10.00 Ry     beta= 0.70
     Davidson diagonalization with overlap

---- Real-time Memory Report at c_bands before calling an iterative solver
           130 MiB given to the printing process from OS
             0 MiB allocation reported by mallinfo(arena+hblkhd)
          1167 MiB available memory on the node where the printing process lives
------------------
     ethr =  2.45E-04,  avg # of iterations =  1.0

     negative rho (up, down):  1.456E-01 0.000E+00

     total cpu time spent up to now is        3.0 secs

     total energy              =      -1.17229369 Ry
     estimated scf accuracy    <       1.01601502 Ry

     iteration # 13     ecut=    10.00 Ry     beta= 0.70
     Davidson diagonalization with overlap

---- Real-time Memory Report at c_bands before calling an iterative solver
           130 MiB given to the printing process from OS
             0 MiB allocation reported by mallinfo(arena+hblkhd)
          1167 MiB available memory on the node where the printing process lives
------------------
     ethr =  2.45E-04,  avg # of iterations = 11.0

     negative rho (up, down):  1.591E-01 0.000E+00

     total cpu time spent up to now is        3.3 secs

     total energy              =      -2.55780841 Ry
     estimated scf accuracy    <       3.37399149 Ry

     iteration # 14     ecut=    10.00 Ry     beta= 0.70
     Davidson diagonalization with overlap

---- Real-time Memory Report at c_bands before calling an iterative solver
           130 MiB given to the printing process from OS
             0 MiB allocation reported by mallinfo(arena+hblkhd)
          1167 MiB available memory on the node where the printing process lives
------------------
     ethr =  2.45E-04,  avg # of iterations = 13.0

     negative rho (up, down):  1.511E-01 0.000E+00

     total cpu time spent up to now is        3.7 secs

     total energy              =      -2.69473875 Ry
     estimated scf accuracy    <       2.09633085 Ry

     iteration # 15     ecut=    10.00 Ry     beta= 0.70
     Davidson diagonalization with overlap

---- Real-time Memory Report at c_bands before calling an iterative solver
           130 MiB given to the printing process from OS
             0 MiB allocation reported by mallinfo(arena+hblkhd)
          1167 MiB available memory on the node where the printing process lives
------------------
     ethr =  2.45E-04,  avg # of iterations =  1.0

     negative rho (up, down):  2.275E-01 0.000E+00

     total cpu time spent up to now is        3.9 secs

     total energy              =      -1.57512527 Ry
     estimated scf accuracy    <       2.31200586 Ry

     iteration # 16     ecut=    10.00 Ry     beta= 0.70
     Davidson diagonalization with overlap

---- Real-time Memory Report at c_bands before calling an iterative solver
           130 MiB given to the printing process from OS
             0 MiB allocation reported by mallinfo(arena+hblkhd)
          1166 MiB available memory on the node where the printing process lives
------------------
     ethr =  2.45E-04,  avg # of iterations =  3.0

     negative rho (up, down):  2.089E-01 0.000E+00

     total cpu time spent up to now is        4.2 secs

     total energy              =      -1.76122171 Ry
     estimated scf accuracy    <       1.16966210 Ry

     iteration # 17     ecut=    10.00 Ry     beta= 0.70
     Davidson diagonalization with overlap

---- Real-time Memory Report at c_bands before calling an iterative solver
           130 MiB given to the printing process from OS
             0 MiB allocation reported by mallinfo(arena+hblkhd)
          1166 MiB available memory on the node where the printing process lives
------------------
     ethr =  2.45E-04,  avg # of iterations =  2.0

     negative rho (up, down):  1.826E-01 0.000E+00

     total cpu time spent up to now is        4.4 secs

     total energy              =      -1.79656779 Ry
     estimated scf accuracy    <       0.88602912 Ry

     iteration # 18     ecut=    10.00 Ry     beta= 0.70
     Davidson diagonalization with overlap

---- Real-time Memory Report at c_bands before calling an iterative solver
           130 MiB given to the printing process from OS
             0 MiB allocation reported by mallinfo(arena+hblkhd)
          1166 MiB available memory on the node where the printing process lives
------------------
     ethr =  2.45E-04,  avg # of iterations =  1.0

     negative rho (up, down):  1.751E-01 0.000E+00

     total cpu time spent up to now is        4.7 secs

     total energy              =      -1.79636192 Ry
     estimated scf accuracy    <       0.86381468 Ry

     iteration # 19     ecut=    10.00 Ry     beta= 0.70
     Davidson diagonalization with overlap

---- Real-time Memory Report at c_bands before calling an iterative solver
           130 MiB given to the printing process from OS
             0 MiB allocation reported by mallinfo(arena+hblkhd)
          1166 MiB available memory on the node where the printing process lives
------------------
     ethr =  2.45E-04,  avg # of iterations =  1.0

     negative rho (up, down):  1.743E-01 0.000E+00

     total cpu time spent up to now is        4.9 secs

     total energy              =      -1.78017270 Ry
     estimated scf accuracy    <       0.77250915 Ry

     iteration # 20     ecut=    10.00 Ry     beta= 0.70
     Davidson diagonalization with overlap

---- Real-time Memory Report at c_bands before calling an iterative solver
           130 MiB given to the printing process from OS
             0 MiB allocation reported by mallinfo(arena+hblkhd)
          1166 MiB available memory on the node where the printing process lives
------------------
     ethr =  2.45E-04,  avg # of iterations =  1.0

     negative rho (up, down):  1.747E-01 0.000E+00

     total cpu time spent up to now is        5.1 secs

     total energy              =      -1.80577485 Ry
     estimated scf accuracy    <       0.89056588 Ry

     iteration # 21     ecut=    10.00 Ry     beta= 0.70
     Davidson diagonalization with overlap

---- Real-time Memory Report at c_bands before calling an iterative solver
           130 MiB given to the printing process from OS
             0 MiB allocation reported by mallinfo(arena+hblkhd)
          1166 MiB available memory on the node where the printing process lives
------------------
     ethr =  2.45E-04,  avg # of iterations =  1.0

     negative rho (up, down):  1.732E-01 0.000E+00

     total cpu time spent up to now is        5.3 secs

     total energy              =      -1.79097346 Ry
     estimated scf accuracy    <       0.92041859 Ry

     iteration # 22     ecut=    10.00 Ry     beta= 0.70
     Davidson diagonalization with overlap

---- Real-time Memory Report at c_bands before calling an iterative solver
           130 MiB given to the printing process from OS
             0 MiB allocation reported by mallinfo(arena+hblkhd)
          1166 MiB available memory on the node where the printing process lives
------------------
     ethr =  2.45E-04,  avg # of iterations =  1.0

     negative rho (up, down):  1.735E-01 0.000E+00

     total cpu time spent up to now is        5.5 secs

     total energy              =      -1.79305957 Ry
     estimated scf accuracy    <       0.00109677 Ry

     iteration # 23     ecut=    10.00 Ry     beta= 0.70
     Davidson diagonalization with overlap

---- Real-time Memory Report at c_bands before calling an iterative solver
           130 MiB given to the printing process from OS
             0 MiB allocation reported by mallinfo(arena+hblkhd)
          1166 MiB available memory on the node where the printing process lives
------------------
     ethr =  5.48E-05,  avg # of iterations =  1.0

     negative rho (up, down):  1.736E-01 0.000E+00

     total cpu time spent up to now is        5.8 secs

     total energy              =      -1.79688833 Ry
     estimated scf accuracy    <       0.62156335 Ry

     iteration # 24     ecut=    10.00 Ry     beta= 0.70
     Davidson diagonalization with overlap

---- Real-time Memory Report at c_bands before calling an iterative solver
           130 MiB given to the printing process from OS
             0 MiB allocation reported by mallinfo(arena+hblkhd)
          1166 MiB available memory on the node where the printing process lives
------------------
     ethr =  5.48E-05,  avg # of iterations =  1.0

     negative rho (up, down):  1.727E-01 0.000E+00

     total cpu time spent up to now is        6.0 secs

     total energy              =      -1.77941600 Ry
     estimated scf accuracy    <       0.74867441 Ry

     iteration # 25     ecut=    10.00 Ry     beta= 0.70
     Davidson diagonalization with overlap

---- Real-time Memory Report at c_bands before calling an iterative solver
           130 MiB given to the printing process from OS
             0 MiB allocation reported by mallinfo(arena+hblkhd)
          1166 MiB available memory on the node where the printing process lives
------------------
     ethr =  5.48E-05,  avg # of iterations =  1.0

     negative rho (up, down):  1.714E-01 0.000E+00

     total cpu time spent up to now is        6.2 secs

     total energy              =      -1.79249534 Ry
     estimated scf accuracy    <       0.91559925 Ry

     iteration # 26     ecut=    10.00 Ry     beta= 0.70
     Davidson diagonalization with overlap

---- Real-time Memory Report at c_bands before calling an iterative solver
           130 MiB given to the printing process from OS
             0 MiB allocation reported by mallinfo(arena+hblkhd)
          1166 MiB available memory on the node where the printing process lives
------------------
     ethr =  5.48E-05,  avg # of iterations =  1.0

     negative rho (up, down):  1.709E-01 0.000E+00

     total cpu time spent up to now is        6.5 secs

     total energy              =      -1.79316368 Ry
     estimated scf accuracy    <       0.04618876 Ry

     iteration # 27     ecut=    10.00 Ry     beta= 0.70
     Davidson diagonalization with overlap

---- Real-time Memory Report at c_bands before calling an iterative solver
           130 MiB given to the printing process from OS
             0 MiB allocation reported by mallinfo(arena+hblkhd)
          1166 MiB available memory on the node where the printing process lives
------------------
     ethr =  5.48E-05,  avg # of iterations =  1.0

     negative rho (up, down):  1.707E-01 0.000E+00

     total cpu time spent up to now is        6.7 secs

     total energy              =      -1.79681714 Ry
     estimated scf accuracy    <       0.68917863 Ry

     iteration # 28     ecut=    10.00 Ry     beta= 0.70
     Davidson diagonalization with overlap

---- Real-time Memory Report at c_bands before calling an iterative solver
           130 MiB given to the printing process from OS
             0 MiB allocation reported by mallinfo(arena+hblkhd)
          1166 MiB available memory on the node where the printing process lives
------------------
     ethr =  5.48E-05,  avg # of iterations =  1.0

     negative rho (up, down):  1.708E-01 0.000E+00

     total cpu time spent up to now is        6.9 secs

     total energy              =      -1.79547008 Ry
     estimated scf accuracy    <       0.66085098 Ry

     iteration # 29     ecut=    10.00 Ry     beta= 0.70
     Davidson diagonalization with overlap

---- Real-time Memory Report at c_bands before calling an iterative solver
           130 MiB given to the printing process from OS
             0 MiB allocation reported by mallinfo(arena+hblkhd)
          1166 MiB available memory on the node where the printing process lives
------------------
     ethr =  5.48E-05,  avg # of iterations =  1.0

     negative rho (up, down):  1.721E-01 0.000E+00

     total cpu time spent up to now is        7.1 secs

     total energy              =      -1.78659706 Ry
     estimated scf accuracy    <       0.44822654 Ry

     iteration # 30     ecut=    10.00 Ry     beta= 0.70
     Davidson diagonalization with overlap

---- Real-time Memory Report at c_bands before calling an iterative solver
           130 MiB given to the printing process from OS
             0 MiB allocation reported by mallinfo(arena+hblkhd)
          1166 MiB available memory on the node where the printing process lives
------------------
     ethr =  5.48E-05,  avg # of iterations =  1.0

     negative rho (up, down):  1.719E-01 0.000E+00

     total cpu time spent up to now is        7.4 secs

     total energy              =      -1.79940071 Ry
     estimated scf accuracy    <       0.86197603 Ry

     iteration # 31     ecut=    10.00 Ry     beta= 0.70
     Davidson diagonalization with overlap

---- Real-time Memory Report at c_bands before calling an iterative solver
           130 MiB given to the printing process from OS
             0 MiB allocation reported by mallinfo(arena+hblkhd)
          1166 MiB available memory on the node where the printing process lives
------------------
     ethr =  5.48E-05,  avg # of iterations =  1.0

     negative rho (up, down):  1.715E-01 0.000E+00

     total cpu time spent up to now is        7.6 secs

     total energy              =      -1.80062690 Ry
     estimated scf accuracy    <       0.83466261 Ry

     iteration # 32     ecut=    10.00 Ry     beta= 0.70
     Davidson diagonalization with overlap

---- Real-time Memory Report at c_bands before calling an iterative solver
           130 MiB given to the printing process from OS
             0 MiB allocation reported by mallinfo(arena+hblkhd)
          1166 MiB available memory on the node where the printing process lives
------------------
     ethr =  5.48E-05,  avg # of iterations =  1.0

     negative rho (up, down):  1.718E-01 0.000E+00

     total cpu time spent up to now is        7.8 secs

     total energy              =      -1.80189769 Ry
     estimated scf accuracy    <       0.85951690 Ry

     iteration # 33     ecut=    10.00 Ry     beta= 0.70
     Davidson diagonalization with overlap

---- Real-time Memory Report at c_bands before calling an iterative solver
           130 MiB given to the printing process from OS
             0 MiB allocation reported by mallinfo(arena+hblkhd)
          1166 MiB available memory on the node where the printing process lives
------------------
     ethr =  5.48E-05,  avg # of iterations =  1.0

     negative rho (up, down):  1.717E-01 0.000E+00

     total cpu time spent up to now is        8.1 secs

     total energy              =      -1.80520025 Ry
     estimated scf accuracy    <       0.88218796 Ry

     iteration # 34     ecut=    10.00 Ry     beta= 0.70
     Davidson diagonalization with overlap

---- Real-time Memory Report at c_bands before calling an iterative solver
           130 MiB given to the printing process from OS
             0 MiB allocation reported by mallinfo(arena+hblkhd)
          1166 MiB available memory on the node where the printing process lives
------------------
     ethr =  5.48E-05,  avg # of iterations =  1.0

     negative rho (up, down):  1.714E-01 0.000E+00

     total cpu time spent up to now is        8.3 secs

     total energy              =      -1.79125265 Ry
     estimated scf accuracy    <       0.91498204 Ry

     iteration # 35     ecut=    10.00 Ry     beta= 0.70
     Davidson diagonalization with overlap

---- Real-time Memory Report at c_bands before calling an iterative solver
           130 MiB given to the printing process from OS
             0 MiB allocation reported by mallinfo(arena+hblkhd)
          1166 MiB available memory on the node where the printing process lives
------------------
     ethr =  5.48E-05,  avg # of iterations =  1.0

     negative rho (up, down):  1.713E-01 0.000E+00

     total cpu time spent up to now is        8.5 secs

     total energy              =      -1.79373598 Ry
     estimated scf accuracy    <       0.03787282 Ry

     iteration # 36     ecut=    10.00 Ry     beta= 0.70
     Davidson diagonalization with overlap

---- Real-time Memory Report at c_bands before calling an iterative solver
           130 MiB given to the printing process from OS
             0 MiB allocation reported by mallinfo(arena+hblkhd)
          1166 MiB available memory on the node where the printing process lives
------------------
     ethr =  5.48E-05,  avg # of iterations =  1.0

     negative rho (up, down):  1.716E-01 0.000E+00

     total cpu time spent up to now is        8.8 secs

     total energy              =      -1.79459010 Ry
     estimated scf accuracy    <       0.30893555 Ry

     iteration # 37     ecut=    10.00 Ry     beta= 0.70
     Davidson diagonalization with overlap

---- Real-time Memory Report at c_bands before calling an iterative solver
           130 MiB given to the printing process from OS
             0 MiB allocation reported by mallinfo(arena+hblkhd)
          1166 MiB available memory on the node where the printing process lives
------------------
     ethr =  5.48E-05,  avg # of iterations =  1.0

     negative rho (up, down):  1.720E-01 0.000E+00

     total cpu time spent up to now is        9.0 secs

     total energy              =      -1.79576032 Ry
     estimated scf accuracy    <       0.25772648 Ry

     iteration # 38     ecut=    10.00 Ry     beta= 0.70
     Davidson diagonalization with overlap

---- Real-time Memory Report at c_bands before calling an iterative solver
           130 MiB given to the printing process from OS
             0 MiB allocation reported by mallinfo(arena+hblkhd)
          1166 MiB available memory on the node where the printing process lives
------------------
     ethr =  5.48E-05,  avg # of iterations =  1.0

     negative rho (up, down):  1.722E-01 0.000E+00

     total cpu time spent up to now is        9.2 secs

     total energy              =      -1.79673925 Ry
     estimated scf accuracy    <       0.65991360 Ry

     iteration # 39     ecut=    10.00 Ry     beta= 0.70
     Davidson diagonalization with overlap

---- Real-time Memory Report at c_bands before calling an iterative solver
           130 MiB given to the printing process from OS
             0 MiB allocation reported by mallinfo(arena+hblkhd)
          1166 MiB available memory on the node where the printing process lives
------------------
     ethr =  5.48E-05,  avg # of iterations =  1.0

     negative rho (up, down):  1.718E-01 0.000E+00

     total cpu time spent up to now is        9.4 secs

     total energy              =      -1.79998365 Ry
     estimated scf accuracy    <       0.71026837 Ry

     iteration # 40     ecut=    10.00 Ry     beta= 0.70
     Davidson diagonalization with overlap

---- Real-time Memory Report at c_bands before calling an iterative solver
           130 MiB given to the printing process from OS
             0 MiB allocation reported by mallinfo(arena+hblkhd)
          1166 MiB available memory on the node where the printing process lives
------------------
     ethr =  5.48E-05,  avg # of iterations =  1.0

     negative rho (up, down):  1.712E-01 0.000E+00

     total cpu time spent up to now is        9.7 secs

     total energy              =      -1.79820075 Ry
     estimated scf accuracy    <       0.84835930 Ry

     iteration # 41     ecut=    10.00 Ry     beta= 0.70
     Davidson diagonalization with overlap

---- Real-time Memory Report at c_bands before calling an iterative solver
           130 MiB given to the printing process from OS
             0 MiB allocation reported by mallinfo(arena+hblkhd)
          1166 MiB available memory on the node where the printing process lives
------------------
     ethr =  5.48E-05,  avg # of iterations =  1.0

     negative rho (up, down):  1.711E-01 0.000E+00

     total cpu time spent up to now is        9.9 secs

     total energy              =      -1.79707531 Ry
     estimated scf accuracy    <       0.77497552 Ry

     iteration # 42     ecut=    10.00 Ry     beta= 0.70
     Davidson diagonalization with overlap

---- Real-time Memory Report at c_bands before calling an iterative solver
           130 MiB given to the printing process from OS
             0 MiB allocation reported by mallinfo(arena+hblkhd)
          1166 MiB available memory on the node where the printing process lives
------------------
     ethr =  5.48E-05,  avg # of iterations =  1.0

     negative rho (up, down):  1.711E-01 0.000E+00

     total cpu time spent up to now is       10.1 secs

     total energy              =      -1.79713344 Ry
     estimated scf accuracy    <       0.69519837 Ry

     iteration # 43     ecut=    10.00 Ry     beta= 0.70
     Davidson diagonalization with overlap

---- Real-time Memory Report at c_bands before calling an iterative solver
           130 MiB given to the printing process from OS
             0 MiB allocation reported by mallinfo(arena+hblkhd)
          1166 MiB available memory on the node where the printing process lives
------------------
     ethr =  5.48E-05,  avg # of iterations =  1.0

     negative rho (up, down):  1.713E-01 0.000E+00

     total cpu time spent up to now is       10.4 secs

     total energy              =      -1.79804946 Ry
     estimated scf accuracy    <       0.70585015 Ry

     iteration # 44     ecut=    10.00 Ry     beta= 0.70
     Davidson diagonalization with overlap

---- Real-time Memory Report at c_bands before calling an iterative solver
           130 MiB given to the printing process from OS
             0 MiB allocation reported by mallinfo(arena+hblkhd)
          1166 MiB available memory on the node where the printing process lives
------------------
     ethr =  5.48E-05,  avg # of iterations =  1.0

     negative rho (up, down):  1.713E-01 0.000E+00

     total cpu time spent up to now is       10.6 secs

     total energy              =      -1.79498248 Ry
     estimated scf accuracy    <       0.77299995 Ry

     iteration # 45     ecut=    10.00 Ry     beta= 0.70
     Davidson diagonalization with overlap

---- Real-time Memory Report at c_bands before calling an iterative solver
           130 MiB given to the printing process from OS
             0 MiB allocation reported by mallinfo(arena+hblkhd)
          1166 MiB available memory on the node where the printing process lives
------------------
     ethr =  5.48E-05,  avg # of iterations =  1.0

     negative rho (up, down):  1.704E-01 0.000E+00

     total cpu time spent up to now is       10.9 secs

     total energy              =      -1.79098734 Ry
     estimated scf accuracy    <       0.43763561 Ry

     iteration # 46     ecut=    10.00 Ry     beta= 0.70
     Davidson diagonalization with overlap

---- Real-time Memory Report at c_bands before calling an iterative solver
           130 MiB given to the printing process from OS
             0 MiB allocation reported by mallinfo(arena+hblkhd)
          1166 MiB available memory on the node where the printing process lives
------------------
     ethr =  5.48E-05,  avg # of iterations =  1.0

     negative rho (up, down):  1.718E-01 0.000E+00

     total cpu time spent up to now is       11.1 secs

     total energy              =      -1.78987538 Ry
     estimated scf accuracy    <       0.62751227 Ry

     iteration # 47     ecut=    10.00 Ry     beta= 0.70
     Davidson diagonalization with overlap

---- Real-time Memory Report at c_bands before calling an iterative solver
           130 MiB given to the printing process from OS
             0 MiB allocation reported by mallinfo(arena+hblkhd)
          1166 MiB available memory on the node where the printing process lives
------------------
     ethr =  5.48E-05,  avg # of iterations =  1.0

     negative rho (up, down):  1.709E-01 0.000E+00

     total cpu time spent up to now is       11.3 secs

     total energy              =      -1.79223080 Ry
     estimated scf accuracy    <       0.54735774 Ry

     iteration # 48     ecut=    10.00 Ry     beta= 0.70
     Davidson diagonalization with overlap

---- Real-time Memory Report at c_bands before calling an iterative solver
           130 MiB given to the printing process from OS
             0 MiB allocation reported by mallinfo(arena+hblkhd)
          1166 MiB available memory on the node where the printing process lives
------------------
     ethr =  5.48E-05,  avg # of iterations =  1.0

     negative rho (up, down):  1.709E-01 0.000E+00

     total cpu time spent up to now is       11.5 secs

     total energy              =      -1.79416451 Ry
     estimated scf accuracy    <       0.19290280 Ry

     iteration # 49     ecut=    10.00 Ry     beta= 0.70
     Davidson diagonalization with overlap

---- Real-time Memory Report at c_bands before calling an iterative solver
           130 MiB given to the printing process from OS
             0 MiB allocation reported by mallinfo(arena+hblkhd)
          1166 MiB available memory on the node where the printing process lives
------------------
     ethr =  5.48E-05,  avg # of iterations =  1.0

     negative rho (up, down):  1.712E-01 0.000E+00

     total cpu time spent up to now is       11.7 secs

     total energy              =      -1.79436765 Ry
     estimated scf accuracy    <       0.00221606 Ry

     iteration # 50     ecut=    10.00 Ry     beta= 0.70
     Davidson diagonalization with overlap

---- Real-time Memory Report at c_bands before calling an iterative solver
           130 MiB given to the printing process from OS
             0 MiB allocation reported by mallinfo(arena+hblkhd)
          1166 MiB available memory on the node where the printing process lives
------------------
     ethr =  5.48E-05,  avg # of iterations =  1.0

     negative rho (up, down):  1.711E-01 0.000E+00

     total cpu time spent up to now is       12.0 secs

     total energy              =      -1.79386784 Ry
     estimated scf accuracy    <       0.10743605 Ry

     iteration # 51     ecut=    10.00 Ry     beta= 0.70
     Davidson diagonalization with overlap

---- Real-time Memory Report at c_bands before calling an iterative solver
           130 MiB given to the printing process from OS
             0 MiB allocation reported by mallinfo(arena+hblkhd)
          1166 MiB available memory on the node where the printing process lives
------------------
     ethr =  5.48E-05,  avg # of iterations =  1.0

     negative rho (up, down):  1.711E-01 0.000E+00

     total cpu time spent up to now is       12.2 secs

     total energy              =      -1.79413520 Ry
     estimated scf accuracy    <       0.07025282 Ry

     iteration # 52     ecut=    10.00 Ry     beta= 0.70
     Davidson diagonalization with overlap

---- Real-time Memory Report at c_bands before calling an iterative solver
           130 MiB given to the printing process from OS
             0 MiB allocation reported by mallinfo(arena+hblkhd)
          1166 MiB available memory on the node where the printing process lives
------------------
     ethr =  5.48E-05,  avg # of iterations =  1.0

     negative rho (up, down):  1.711E-01 0.000E+00

     total cpu time spent up to now is       12.4 secs

     total energy              =      -1.79430834 Ry
     estimated scf accuracy    <       0.00962775 Ry

     iteration # 53     ecut=    10.00 Ry     beta= 0.70
     Davidson diagonalization with overlap

---- Real-time Memory Report at c_bands before calling an iterative solver
           130 MiB given to the printing process from OS
             0 MiB allocation reported by mallinfo(arena+hblkhd)
          1166 MiB available memory on the node where the printing process lives
------------------
     ethr =  5.48E-05,  avg # of iterations =  1.0

     negative rho (up, down):  1.713E-01 0.000E+00

     total cpu time spent up to now is       12.7 secs

     total energy              =      -1.79425780 Ry
     estimated scf accuracy    <       0.00081203 Ry

     iteration # 54     ecut=    10.00 Ry     beta= 0.70
     Davidson diagonalization with overlap

---- Real-time Memory Report at c_bands before calling an iterative solver
           130 MiB given to the printing process from OS
             0 MiB allocation reported by mallinfo(arena+hblkhd)
          1166 MiB available memory on the node where the printing process lives
------------------
     ethr =  4.06E-05,  avg # of iterations =  1.0

     negative rho (up, down):  1.714E-01 0.000E+00

     total cpu time spent up to now is       12.9 secs

     total energy              =      -1.79426796 Ry
     estimated scf accuracy    <       0.04186872 Ry

     iteration # 55     ecut=    10.00 Ry     beta= 0.70
     Davidson diagonalization with overlap

---- Real-time Memory Report at c_bands before calling an iterative solver
           130 MiB given to the printing process from OS
             0 MiB allocation reported by mallinfo(arena+hblkhd)
          1166 MiB available memory on the node where the printing process lives
------------------
     ethr =  4.06E-05,  avg # of iterations =  1.0

     negative rho (up, down):  1.704E-01 0.000E+00

     total cpu time spent up to now is       13.1 secs

     total energy              =      -1.79470523 Ry
     estimated scf accuracy    <       0.04152577 Ry

     iteration # 56     ecut=    10.00 Ry     beta= 0.70
     Davidson diagonalization with overlap

---- Real-time Memory Report at c_bands before calling an iterative solver
           130 MiB given to the printing process from OS
             0 MiB allocation reported by mallinfo(arena+hblkhd)
          1166 MiB available memory on the node where the printing process lives
------------------
     ethr =  4.06E-05,  avg # of iterations =  1.0

     negative rho (up, down):  1.703E-01 0.000E+00

     total cpu time spent up to now is       13.3 secs

     total energy              =      -1.79471997 Ry
     estimated scf accuracy    <       0.06380623 Ry

     iteration # 57     ecut=    10.00 Ry     beta= 0.70
     Davidson diagonalization with overlap

---- Real-time Memory Report at c_bands before calling an iterative solver
           130 MiB given to the printing process from OS
             0 MiB allocation reported by mallinfo(arena+hblkhd)
          1166 MiB available memory on the node where the printing process lives
------------------
     ethr =  4.06E-05,  avg # of iterations =  1.0

     negative rho (up, down):  1.700E-01 0.000E+00

     total cpu time spent up to now is       13.6 secs

     total energy              =      -1.79485751 Ry
     estimated scf accuracy    <       0.03862180 Ry

     iteration # 58     ecut=    10.00 Ry     beta= 0.70
     Davidson diagonalization with overlap

---- Real-time Memory Report at c_bands before calling an iterative solver
           130 MiB given to the printing process from OS
             0 MiB allocation reported by mallinfo(arena+hblkhd)
          1166 MiB available memory on the node where the printing process lives
------------------
     ethr =  4.06E-05,  avg # of iterations =  1.0

     negative rho (up, down):  1.701E-01 0.000E+00

     total cpu time spent up to now is       13.8 secs

     total energy              =      -1.79470314 Ry
     estimated scf accuracy    <       0.04216337 Ry

     iteration # 59     ecut=    10.00 Ry     beta= 0.70
     Davidson diagonalization with overlap

---- Real-time Memory Report at c_bands before calling an iterative solver
           130 MiB given to the printing process from OS
             0 MiB allocation reported by mallinfo(arena+hblkhd)
          1166 MiB available memory on the node where the printing process lives
------------------
     ethr =  4.06E-05,  avg # of iterations =  1.0

     negative rho (up, down):  1.700E-01 0.000E+00

     total cpu time spent up to now is       14.0 secs

     total energy              =      -1.79480034 Ry
     estimated scf accuracy    <       0.00085666 Ry

     iteration # 60     ecut=    10.00 Ry     beta= 0.70
     Davidson diagonalization with overlap

---- Real-time Memory Report at c_bands before calling an iterative solver
           130 MiB given to the printing process from OS
             0 MiB allocation reported by mallinfo(arena+hblkhd)
          1166 MiB available memory on the node where the printing process lives
------------------
     ethr =  4.06E-05,  avg # of iterations =  1.0

     negative rho (up, down):  1.699E-01 0.000E+00

     total cpu time spent up to now is       14.2 secs

     total energy              =      -1.79488813 Ry
     estimated scf accuracy    <       0.00282626 Ry

     iteration # 61     ecut=    10.00 Ry     beta= 0.70
     Davidson diagonalization with overlap

---- Real-time Memory Report at c_bands before calling an iterative solver
           130 MiB given to the printing process from OS
             0 MiB allocation reported by mallinfo(arena+hblkhd)
          1166 MiB available memory on the node where the printing process lives
------------------
     ethr =  4.06E-05,  avg # of iterations =  1.0

     negative rho (up, down):  1.699E-01 0.000E+00

     total cpu time spent up to now is       14.5 secs

     total energy              =      -1.79492180 Ry
     estimated scf accuracy    <       0.00294775 Ry

     iteration # 62     ecut=    10.00 Ry     beta= 0.70
     Davidson diagonalization with overlap

---- Real-time Memory Report at c_bands before calling an iterative solver
           130 MiB given to the printing process from OS
             0 MiB allocation reported by mallinfo(arena+hblkhd)
          1166 MiB available memory on the node where the printing process lives
------------------
     ethr =  4.06E-05,  avg # of iterations =  1.0

     negative rho (up, down):  1.700E-01 0.000E+00

     total cpu time spent up to now is       14.7 secs

     total energy              =      -1.79487447 Ry
     estimated scf accuracy    <       0.01284700 Ry

     iteration # 63     ecut=    10.00 Ry     beta= 0.70
     Davidson diagonalization with overlap

---- Real-time Memory Report at c_bands before calling an iterative solver
           130 MiB given to the printing process from OS
             0 MiB allocation reported by mallinfo(arena+hblkhd)
          1166 MiB available memory on the node where the printing process lives
------------------
     ethr =  4.06E-05,  avg # of iterations =  1.0

     negative rho (up, down):  1.700E-01 0.000E+00

     total cpu time spent up to now is       14.9 secs

     total energy              =      -1.79488281 Ry
     estimated scf accuracy    <       0.00235485 Ry

     iteration # 64     ecut=    10.00 Ry     beta= 0.70
     Davidson diagonalization with overlap

---- Real-time Memory Report at c_bands before calling an iterative solver
           130 MiB given to the printing process from OS
             0 MiB allocation reported by mallinfo(arena+hblkhd)
          1166 MiB available memory on the node where the printing process lives
------------------
     ethr =  4.06E-05,  avg # of iterations =  1.0

     negative rho (up, down):  1.700E-01 0.000E+00

     total cpu time spent up to now is       15.2 secs

     total energy              =      -1.79483641 Ry
     estimated scf accuracy    <       0.00429964 Ry

     iteration # 65     ecut=    10.00 Ry     beta= 0.70
     Davidson diagonalization with overlap

---- Real-time Memory Report at c_bands before calling an iterative solver
           130 MiB given to the printing process from OS
             0 MiB allocation reported by mallinfo(arena+hblkhd)
          1166 MiB available memory on the node where the printing process lives
------------------
     ethr =  4.06E-05,  avg # of iterations =  1.0

     negative rho (up, down):  1.700E-01 0.000E+00

     total cpu time spent up to now is       15.4 secs

     total energy              =      -1.79487089 Ry
     estimated scf accuracy    <       0.00000127 Ry

     iteration # 66     ecut=    10.00 Ry     beta= 0.70
     Davidson diagonalization with overlap

---- Real-time Memory Report at c_bands before calling an iterative solver
           130 MiB given to the printing process from OS
             0 MiB allocation reported by mallinfo(arena+hblkhd)
          1166 MiB available memory on the node where the printing process lives
------------------
     ethr =  6.33E-08,  avg # of iterations =  2.0

     negative rho (up, down):  1.701E-01 0.000E+00

     total cpu time spent up to now is       15.6 secs

     total energy              =      -1.79483372 Ry
     estimated scf accuracy    <       0.00000009 Ry

     iteration # 67     ecut=    10.00 Ry     beta= 0.70
     Davidson diagonalization with overlap

---- Real-time Memory Report at c_bands before calling an iterative solver
           130 MiB given to the printing process from OS
             0 MiB allocation reported by mallinfo(arena+hblkhd)
          1166 MiB available memory on the node where the printing process lives
------------------
     ethr =  4.43E-09,  avg # of iterations =  3.0

     negative rho (up, down):  1.701E-01 0.000E+00

     total cpu time spent up to now is       15.8 secs

     total energy              =      -1.79484204 Ry
     estimated scf accuracy    <       0.00461284 Ry

     iteration # 68     ecut=    10.00 Ry     beta= 0.70
     Davidson diagonalization with overlap

---- Real-time Memory Report at c_bands before calling an iterative solver
           130 MiB given to the printing process from OS
             0 MiB allocation reported by mallinfo(arena+hblkhd)
          1166 MiB available memory on the node where the printing process lives
------------------
     ethr =  4.43E-09,  avg # of iterations =  3.0

     negative rho (up, down):  1.700E-01 0.000E+00

     total cpu time spent up to now is       16.1 secs

     total energy              =      -1.79483308 Ry
     estimated scf accuracy    <       0.00216086 Ry

     iteration # 69     ecut=    10.00 Ry     beta= 0.70
     Davidson diagonalization with overlap

---- Real-time Memory Report at c_bands before calling an iterative solver
           130 MiB given to the printing process from OS
             0 MiB allocation reported by mallinfo(arena+hblkhd)
          1166 MiB available memory on the node where the printing process lives
------------------
     ethr =  4.43E-09,  avg # of iterations =  3.0

     negative rho (up, down):  1.700E-01 0.000E+00

     total cpu time spent up to now is       16.3 secs

     total energy              =      -1.79485814 Ry
     estimated scf accuracy    <       0.00153231 Ry

     iteration # 70     ecut=    10.00 Ry     beta= 0.70
     Davidson diagonalization with overlap

---- Real-time Memory Report at c_bands before calling an iterative solver
           130 MiB given to the printing process from OS
             0 MiB allocation reported by mallinfo(arena+hblkhd)
          1166 MiB available memory on the node where the printing process lives
------------------
     ethr =  4.43E-09,  avg # of iterations =  4.0

     negative rho (up, down):  1.700E-01 0.000E+00

     total cpu time spent up to now is       16.6 secs

     total energy              =      -1.79485710 Ry
     estimated scf accuracy    <       0.00233805 Ry

     iteration # 71     ecut=    10.00 Ry     beta= 0.70
     Davidson diagonalization with overlap

---- Real-time Memory Report at c_bands before calling an iterative solver
           130 MiB given to the printing process from OS
             0 MiB allocation reported by mallinfo(arena+hblkhd)
          1166 MiB available memory on the node where the printing process lives
------------------
     ethr =  4.43E-09,  avg # of iterations =  4.0

     negative rho (up, down):  1.700E-01 0.000E+00

     total cpu time spent up to now is       16.8 secs

     total energy              =      -1.79483735 Ry
     estimated scf accuracy    <       0.00014889 Ry

     iteration # 72     ecut=    10.00 Ry     beta= 0.70
     Davidson diagonalization with overlap

---- Real-time Memory Report at c_bands before calling an iterative solver
           130 MiB given to the printing process from OS
             0 MiB allocation reported by mallinfo(arena+hblkhd)
          1166 MiB available memory on the node where the printing process lives
------------------
     ethr =  4.43E-09,  avg # of iterations =  4.0

     negative rho (up, down):  1.700E-01 0.000E+00

     total cpu time spent up to now is       17.1 secs

     total energy              =      -1.79485105 Ry
     estimated scf accuracy    <       0.00158976 Ry

     iteration # 73     ecut=    10.00 Ry     beta= 0.70
     Davidson diagonalization with overlap

---- Real-time Memory Report at c_bands before calling an iterative solver
           130 MiB given to the printing process from OS
             0 MiB allocation reported by mallinfo(arena+hblkhd)
          1166 MiB available memory on the node where the printing process lives
------------------
     ethr =  4.43E-09,  avg # of iterations =  3.0

     negative rho (up, down):  1.700E-01 0.000E+00

     total cpu time spent up to now is       17.3 secs

     total energy              =      -1.79486003 Ry
     estimated scf accuracy    <       0.00354007 Ry

     iteration # 74     ecut=    10.00 Ry     beta= 0.70
     Davidson diagonalization with overlap

---- Real-time Memory Report at c_bands before calling an iterative solver
           130 MiB given to the printing process from OS
             0 MiB allocation reported by mallinfo(arena+hblkhd)
          1166 MiB available memory on the node where the printing process lives
------------------
     ethr =  4.43E-09,  avg # of iterations =  3.0

     negative rho (up, down):  1.700E-01 0.000E+00

     total cpu time spent up to now is       17.6 secs

     total energy              =      -1.79483999 Ry
     estimated scf accuracy    <       0.00132463 Ry

     iteration # 75     ecut=    10.00 Ry     beta= 0.70
     Davidson diagonalization with overlap

---- Real-time Memory Report at c_bands before calling an iterative solver
           130 MiB given to the printing process from OS
             0 MiB allocation reported by mallinfo(arena+hblkhd)
          1166 MiB available memory on the node where the printing process lives
------------------
     ethr =  4.43E-09,  avg # of iterations =  4.0

     negative rho (up, down):  1.700E-01 0.000E+00

     total cpu time spent up to now is       17.8 secs

     total energy              =      -1.79487368 Ry
     estimated scf accuracy    <       0.00098886 Ry

     iteration # 76     ecut=    10.00 Ry     beta= 0.70
     Davidson diagonalization with overlap

---- Real-time Memory Report at c_bands before calling an iterative solver
           130 MiB given to the printing process from OS
             0 MiB allocation reported by mallinfo(arena+hblkhd)
          1166 MiB available memory on the node where the printing process lives
------------------
     ethr =  4.43E-09,  avg # of iterations =  4.0

     negative rho (up, down):  1.700E-01 0.000E+00

     total cpu time spent up to now is       18.1 secs

     total energy              =      -1.79487232 Ry
     estimated scf accuracy    <       0.00001090 Ry

     iteration # 77     ecut=    10.00 Ry     beta= 0.70
     Davidson diagonalization with overlap

---- Real-time Memory Report at c_bands before calling an iterative solver
           130 MiB given to the printing process from OS
             0 MiB allocation reported by mallinfo(arena+hblkhd)
          1166 MiB available memory on the node where the printing process lives
------------------
     ethr =  4.43E-09,  avg # of iterations =  3.0

     negative rho (up, down):  1.700E-01 0.000E+00

     total cpu time spent up to now is       18.3 secs

     total energy              =      -1.79487071 Ry
     estimated scf accuracy    <       0.00006899 Ry

     iteration # 78     ecut=    10.00 Ry     beta= 0.70
     Davidson diagonalization with overlap

---- Real-time Memory Report at c_bands before calling an iterative solver
           130 MiB given to the printing process from OS
             0 MiB allocation reported by mallinfo(arena+hblkhd)
          1166 MiB available memory on the node where the printing process lives
------------------
     ethr =  4.43E-09,  avg # of iterations =  3.0

     negative rho (up, down):  1.700E-01 0.000E+00

     total cpu time spent up to now is       18.5 secs

     total energy              =      -1.79487463 Ry
     estimated scf accuracy    <       0.00028338 Ry

     iteration # 79     ecut=    10.00 Ry     beta= 0.70
     Davidson diagonalization with overlap

---- Real-time Memory Report at c_bands before calling an iterative solver
           130 MiB given to the printing process from OS
             0 MiB allocation reported by mallinfo(arena+hblkhd)
          1166 MiB available memory on the node where the printing process lives
------------------
     ethr =  4.43E-09,  avg # of iterations =  2.0

     negative rho (up, down):  1.700E-01 0.000E+00

     total cpu time spent up to now is       18.7 secs

     total energy              =      -1.79487230 Ry
     estimated scf accuracy    <       0.00053236 Ry

     iteration # 80     ecut=    10.00 Ry     beta= 0.70
     Davidson diagonalization with overlap

---- Real-time Memory Report at c_bands before calling an iterative solver
           130 MiB given to the printing process from OS
             0 MiB allocation reported by mallinfo(arena+hblkhd)
          1166 MiB available memory on the node where the printing process lives
------------------
     ethr =  4.43E-09,  avg # of iterations =  2.0

     negative rho (up, down):  1.700E-01 0.000E+00

     total cpu time spent up to now is       18.9 secs

     total energy              =      -1.79485300 Ry
     estimated scf accuracy    <       0.00031263 Ry

     iteration # 81     ecut=    10.00 Ry     beta= 0.70
     Davidson diagonalization with overlap

---- Real-time Memory Report at c_bands before calling an iterative solver
           130 MiB given to the printing process from OS
             0 MiB allocation reported by mallinfo(arena+hblkhd)
          1166 MiB available memory on the node where the printing process lives
------------------
     ethr =  4.43E-09,  avg # of iterations =  4.0

     negative rho (up, down):  1.700E-01 0.000E+00

     total cpu time spent up to now is       19.2 secs

     total energy              =      -1.79487621 Ry
     estimated scf accuracy    <       0.00009533 Ry

     iteration # 82     ecut=    10.00 Ry     beta= 0.70
     Davidson diagonalization with overlap

---- Real-time Memory Report at c_bands before calling an iterative solver
           130 MiB given to the printing process from OS
             0 MiB allocation reported by mallinfo(arena+hblkhd)
          1166 MiB available memory on the node where the printing process lives
------------------
     ethr =  4.43E-09,  avg # of iterations =  4.0

     negative rho (up, down):  1.700E-01 0.000E+00

     total cpu time spent up to now is       19.4 secs

     total energy              =      -1.79487186 Ry
     estimated scf accuracy    <       0.00037283 Ry

     iteration # 83     ecut=    10.00 Ry     beta= 0.70
     Davidson diagonalization with overlap

---- Real-time Memory Report at c_bands before calling an iterative solver
           130 MiB given to the printing process from OS
             0 MiB allocation reported by mallinfo(arena+hblkhd)
          1166 MiB available memory on the node where the printing process lives
------------------
     ethr =  4.43E-09,  avg # of iterations =  3.0

     negative rho (up, down):  1.700E-01 0.000E+00

     total cpu time spent up to now is       19.6 secs

     total energy              =      -1.79487263 Ry
     estimated scf accuracy    <       0.00070195 Ry

     iteration # 84     ecut=    10.00 Ry     beta= 0.70
     Davidson diagonalization with overlap

---- Real-time Memory Report at c_bands before calling an iterative solver
           130 MiB given to the printing process from OS
             0 MiB allocation reported by mallinfo(arena+hblkhd)
          1166 MiB available memory on the node where the printing process lives
------------------
     ethr =  4.43E-09,  avg # of iterations =  4.0

     negative rho (up, down):  1.700E-01 0.000E+00

     total cpu time spent up to now is       19.9 secs

     total energy              =      -1.79484684 Ry
     estimated scf accuracy    <       0.00000361 Ry

     iteration # 85     ecut=    10.00 Ry     beta= 0.70
     Davidson diagonalization with overlap

---- Real-time Memory Report at c_bands before calling an iterative solver
           130 MiB given to the printing process from OS
             0 MiB allocation reported by mallinfo(arena+hblkhd)
          1166 MiB available memory on the node where the printing process lives
------------------
     ethr =  4.43E-09,  avg # of iterations =  4.0

     negative rho (up, down):  1.700E-01 0.000E+00

     total cpu time spent up to now is       20.1 secs

     total energy              =      -1.79488020 Ry
     estimated scf accuracy    <       0.00300243 Ry

     iteration # 86     ecut=    10.00 Ry     beta= 0.70
     Davidson diagonalization with overlap

---- Real-time Memory Report at c_bands before calling an iterative solver
           130 MiB given to the printing process from OS
             0 MiB allocation reported by mallinfo(arena+hblkhd)
          1166 MiB available memory on the node where the printing process lives
------------------
     ethr =  4.43E-09,  avg # of iterations =  4.0

     negative rho (up, down):  1.700E-01 0.000E+00

     total cpu time spent up to now is       20.3 secs

     total energy              =      -1.79489174 Ry
     estimated scf accuracy    <       0.00008480 Ry

     iteration # 87     ecut=    10.00 Ry     beta= 0.70
     Davidson diagonalization with overlap

---- Real-time Memory Report at c_bands before calling an iterative solver
           130 MiB given to the printing process from OS
             0 MiB allocation reported by mallinfo(arena+hblkhd)
          1166 MiB available memory on the node where the printing process lives
------------------
     ethr =  4.43E-09,  avg # of iterations =  1.0

     negative rho (up, down):  1.700E-01 0.000E+00

     total cpu time spent up to now is       20.5 secs

     total energy              =      -1.79489175 Ry
     estimated scf accuracy    <       0.00007071 Ry

     iteration # 88     ecut=    10.00 Ry     beta= 0.70
     Davidson diagonalization with overlap

---- Real-time Memory Report at c_bands before calling an iterative solver
           130 MiB given to the printing process from OS
             0 MiB allocation reported by mallinfo(arena+hblkhd)
          1166 MiB available memory on the node where the printing process lives
------------------
     ethr =  4.43E-09,  avg # of iterations =  1.0

     negative rho (up, down):  1.700E-01 0.000E+00

     total cpu time spent up to now is       20.7 secs

     total energy              =      -1.79483669 Ry
     estimated scf accuracy    <       0.00006593 Ry

     iteration # 89     ecut=    10.00 Ry     beta= 0.70
     Davidson diagonalization with overlap

---- Real-time Memory Report at c_bands before calling an iterative solver
           130 MiB given to the printing process from OS
             0 MiB allocation reported by mallinfo(arena+hblkhd)
          1166 MiB available memory on the node where the printing process lives
------------------
     ethr =  4.43E-09,  avg # of iterations =  4.0

     negative rho (up, down):  1.700E-01 0.000E+00

     total cpu time spent up to now is       21.0 secs

     total energy              =      -1.79487748 Ry
     estimated scf accuracy    <       0.00003539 Ry

     iteration # 90     ecut=    10.00 Ry     beta= 0.70
     Davidson diagonalization with overlap

---- Real-time Memory Report at c_bands before calling an iterative solver
           130 MiB given to the printing process from OS
             0 MiB allocation reported by mallinfo(arena+hblkhd)
          1166 MiB available memory on the node where the printing process lives
------------------
     ethr =  4.43E-09,  avg # of iterations =  4.0

     negative rho (up, down):  1.700E-01 0.000E+00

     total cpu time spent up to now is       21.2 secs

     total energy              =      -1.79488173 Ry
     estimated scf accuracy    <       0.00080283 Ry

     iteration # 91     ecut=    10.00 Ry     beta= 0.70
     Davidson diagonalization with overlap

---- Real-time Memory Report at c_bands before calling an iterative solver
           130 MiB given to the printing process from OS
             0 MiB allocation reported by mallinfo(arena+hblkhd)
          1166 MiB available memory on the node where the printing process lives
------------------
     ethr =  4.43E-09,  avg # of iterations =  1.0

     negative rho (up, down):  1.700E-01 0.000E+00

     total cpu time spent up to now is       21.4 secs

     total energy              =      -1.79486722 Ry
     estimated scf accuracy    <       0.00096802 Ry

     iteration # 92     ecut=    10.00 Ry     beta= 0.70
     Davidson diagonalization with overlap

---- Real-time Memory Report at c_bands before calling an iterative solver
           130 MiB given to the printing process from OS
             0 MiB allocation reported by mallinfo(arena+hblkhd)
          1166 MiB available memory on the node where the printing process lives
------------------
     ethr =  4.43E-09,  avg # of iterations =  4.0

     negative rho (up, down):  1.700E-01 0.000E+00

     total cpu time spent up to now is       21.6 secs

     total energy              =      -1.79487953 Ry
     estimated scf accuracy    <       0.00002221 Ry

     iteration # 93     ecut=    10.00 Ry     beta= 0.70
     Davidson diagonalization with overlap

---- Real-time Memory Report at c_bands before calling an iterative solver
           130 MiB given to the printing process from OS
             0 MiB allocation reported by mallinfo(arena+hblkhd)
          1166 MiB available memory on the node where the printing process lives
------------------
     ethr =  4.43E-09,  avg # of iterations =  4.0

     negative rho (up, down):  1.700E-01 0.000E+00

     total cpu time spent up to now is       21.9 secs

     total energy              =      -1.79486529 Ry
     estimated scf accuracy    <       0.00005421 Ry

     iteration # 94     ecut=    10.00 Ry     beta= 0.70
     Davidson diagonalization with overlap

---- Real-time Memory Report at c_bands before calling an iterative solver
           130 MiB given to the printing process from OS
             0 MiB allocation reported by mallinfo(arena+hblkhd)
          1166 MiB available memory on the node where the printing process lives
------------------
     ethr =  4.43E-09,  avg # of iterations =  4.0

     negative rho (up, down):  1.700E-01 0.000E+00

     total cpu time spent up to now is       22.1 secs

     total energy              =      -1.79485933 Ry
     estimated scf accuracy    <       0.00064085 Ry

     iteration # 95     ecut=    10.00 Ry     beta= 0.70
     Davidson diagonalization with overlap

---- Real-time Memory Report at c_bands before calling an iterative solver
           130 MiB given to the printing process from OS
             0 MiB allocation reported by mallinfo(arena+hblkhd)
          1166 MiB available memory on the node where the printing process lives
------------------
     ethr =  4.43E-09,  avg # of iterations =  4.0

     negative rho (up, down):  1.700E-01 0.000E+00

     total cpu time spent up to now is       22.3 secs

     total energy              =      -1.79486189 Ry
     estimated scf accuracy    <       0.00235858 Ry

     iteration # 96     ecut=    10.00 Ry     beta= 0.70
     Davidson diagonalization with overlap

---- Real-time Memory Report at c_bands before calling an iterative solver
           130 MiB given to the printing process from OS
             0 MiB allocation reported by mallinfo(arena+hblkhd)
          1166 MiB available memory on the node where the printing process lives
------------------
     ethr =  4.43E-09,  avg # of iterations =  4.0

     negative rho (up, down):  1.700E-01 0.000E+00

     total cpu time spent up to now is       22.6 secs

     total energy              =      -1.79486715 Ry
     estimated scf accuracy    <       0.00048744 Ry

     iteration # 97     ecut=    10.00 Ry     beta= 0.70
     Davidson diagonalization with overlap

---- Real-time Memory Report at c_bands before calling an iterative solver
           130 MiB given to the printing process from OS
             0 MiB allocation reported by mallinfo(arena+hblkhd)
          1166 MiB available memory on the node where the printing process lives
------------------
     ethr =  4.43E-09,  avg # of iterations =  4.0

     negative rho (up, down):  1.700E-01 0.000E+00

     total cpu time spent up to now is       22.8 secs

     total energy              =      -1.79488081 Ry
     estimated scf accuracy    <       0.00014047 Ry

     iteration # 98     ecut=    10.00 Ry     beta= 0.70
     Davidson diagonalization with overlap

---- Real-time Memory Report at c_bands before calling an iterative solver
           130 MiB given to the printing process from OS
             0 MiB allocation reported by mallinfo(arena+hblkhd)
          1166 MiB available memory on the node where the printing process lives
------------------
     ethr =  4.43E-09,  avg # of iterations =  3.0

     negative rho (up, down):  1.701E-01 0.000E+00

     total cpu time spent up to now is       23.0 secs

     total energy              =      -1.79483464 Ry
     estimated scf accuracy    <       0.00002060 Ry

     iteration # 99     ecut=    10.00 Ry     beta= 0.70
     Davidson diagonalization with overlap

---- Real-time Memory Report at c_bands before calling an iterative solver
           130 MiB given to the printing process from OS
             0 MiB allocation reported by mallinfo(arena+hblkhd)
          1166 MiB available memory on the node where the printing process lives
------------------
     ethr =  4.43E-09,  avg # of iterations =  4.0

     negative rho (up, down):  1.700E-01 0.000E+00

     total cpu time spent up to now is       23.2 secs

     total energy              =      -1.79485095 Ry
     estimated scf accuracy    <       0.00124267 Ry

     iteration #100     ecut=    10.00 Ry     beta= 0.70
     Davidson diagonalization with overlap

---- Real-time Memory Report at c_bands before calling an iterative solver
           130 MiB given to the printing process from OS
             0 MiB allocation reported by mallinfo(arena+hblkhd)
          1166 MiB available memory on the node where the printing process lives
------------------
     ethr =  4.43E-09,  avg # of iterations =  3.0

     negative rho (up, down):  1.700E-01 0.000E+00

     total cpu time spent up to now is       23.5 secs

     total energy              =      -1.79485156 Ry
     estimated scf accuracy    <       0.00061481 Ry

     End of self-consistent calculation

     convergence NOT achieved after 100 iterations: stopping

     Writing config to output data dir ./.save/
     Message from routine punch:
     wavefunctions written to file

     init_run     :      0.21s CPU      0.25s WALL (       1 calls)
     electrons    :     23.18s CPU     23.23s WALL (       1 calls)

     Called by init_run:
     wfcinit      :      0.02s CPU      0.02s WALL (       1 calls)
     wfcinit:atom :      0.00s CPU      0.00s WALL (       1 calls)
     wfcinit:wfcr :      0.02s CPU      0.02s WALL (       1 calls)
     potinit      :      0.13s CPU      0.16s WALL (       1 calls)
     hinit0       :      0.01s CPU      0.01s WALL (       1 calls)

     Called by electrons:
     c_bands      :      3.78s CPU      3.80s WALL (     101 calls)
     sum_band     :      2.71s CPU      2.71s WALL (     101 calls)
     v_of_rho     :     12.81s CPU     12.85s WALL (     101 calls)
     v_h          :      0.70s CPU      0.71s WALL (     101 calls)
     v_xc         :     12.11s CPU     12.14s WALL (     101 calls)
     newd         :      0.87s CPU      0.88s WALL (     101 calls)
     mix_rho      :      2.86s CPU      2.87s WALL (     101 calls)

     Called by c_bands:
     init_us_2    :      0.08s CPU      0.08s WALL (     203 calls)
     init_us_2:cp :      0.08s CPU      0.08s WALL (     203 calls)
     cegterg      :      3.72s CPU      3.74s WALL (     101 calls)

     Called by sum_band:
     sum_band:wei :      0.00s CPU      0.00s WALL (     101 calls)
     sum_band:loo :      0.76s CPU      0.76s WALL (     101 calls)
     sum_band:buf :      0.00s CPU      0.00s WALL (     101 calls)
     sum_band:ini :      0.04s CPU      0.04s WALL (     101 calls)
     sum_band:cal :      0.01s CPU      0.01s WALL (     101 calls)
     sum_band:bec :      0.00s CPU      0.00s WALL (     101 calls)
     addusdens    :      0.24s CPU      0.25s WALL (     101 calls)
     addusd:skk   :      0.07s CPU      0.07s WALL (     101 calls)
     addusd:dgemm :      0.05s CPU      0.05s WALL (     101 calls)
     addusd:qvan2 :      0.06s CPU      0.06s WALL (     101 calls)

     Called by *egterg:
     cdiaghg      :      0.01s CPU      0.01s WALL (     306 calls)
     cegterg:over :      0.04s CPU      0.04s WALL (     206 calls)
     cegterg:upda :      0.03s CPU      0.03s WALL (     206 calls)
     cegterg:last :      0.05s CPU      0.05s WALL (     168 calls)
     h_psi        :      3.51s CPU      3.53s WALL (     308 calls)
     s_psi        :      0.02s CPU      0.02s WALL (     308 calls)
     g_psi        :      0.02s CPU      0.02s WALL (     206 calls)

     Called by h_psi:
     h_psi:calbec :      0.03s CPU      0.03s WALL (     308 calls)
     vloc_psi     :      3.45s CPU      3.47s WALL (     308 calls)
     add_vuspsi   :      0.02s CPU      0.02s WALL (     308 calls)

     General routines
     calbec       :      0.04s CPU      0.04s WALL (     409 calls)
     fft          :      6.07s CPU      6.07s WALL (    1112 calls)
     ffts         :      0.56s CPU      0.56s WALL (     101 calls)
     fftw         :      3.72s CPU      3.74s WALL (    1230 calls)
     davcio       :      0.00s CPU      0.01s WALL (      19 calls)


     PWSCF        :     23.42s CPU     23.51s WALL


   This run was terminated on:  22:20:20  28Feb2022            

=------------------------------------------------------------------------------=
   JOB DONE.
=------------------------------------------------------------------------------=
