
     Program PWSCF v.7.0 starts on 28Feb2022 at  4:11:42 

     This program is part of the open-source Quantum ESPRESSO suite
     for quantum simulation of materials; please cite
         "P. Giannozzi et al., J. Phys.:Condens. Matter 21 395502 (2009);
         "P. Giannozzi et al., J. Phys.:Condens. Matter 29 465901 (2017);
         "P. Giannozzi et al., J. Chem. Phys. 152 154105 (2020);
          URL http://www.quantum-espresso.org", 
     in publications or presentations arising from this work. More details at
     http://www.quantum-espresso.org/quote

     Serial version
     601 MiB available memory on the printing compute node when the environment starts

     Waiting for input...
     Reading input from standard input

     Current dimensions of program PWSCF are:
     Max number of different atomic species (ntypx) = 10
     Max number of k-points (npk) =  40000
     Max angular momentum in pseudopotentials (lmaxx) =  4

    ============================================================
    |  pseudopotential report for atomic species:  1           |
    |        pseudo potential version   7   3   2              |
    ------------------------------------------------------------
    |  hydrogen            PBE                  exchange-corr  |
    |  z =   1.    zv( 1) =   1.    exfact =   5.00000         |
    |  ifpcor =  0           atomic energy =  -0.91772 Ry      |
    |  index    orbital      occupation    energy              |
    |    1        100           1.00       -0.48               |
    |  rinner =  0.5000                                        |
    |    new generation scheme:                                |
    |    nbeta =  1     kkbeta =  271     rcloc =    0.6000    |
    |    ibeta    l     epsilon   rcut                         |
    |      1       0      -0.48   0.80                         |
    ============================================================

     IMPORTANT: XC functional enforced from input :
     Exchange-correlation= BLYP
                           (   1   3   1   3   0   0   0)
     Any further DFT definition will be discarded
     Please, verify this is what you really want


     G-vector sticks info
     --------------------
     sticks:   dense  smooth     PW     G-vecs:    dense   smooth      PW
     Sum        8585    8585   2289               599161   599161   82519

     Using Slab Decomposition



     bravais-lattice index     =            1
     lattice parameter (alat)  =      30.0000  a.u.
     unit-cell volume          =   27000.0000 (a.u.)^3
     number of atoms/cell      =            2
     number of atomic types    =            1
     number of electrons       =         2.00
     number of Kohn-Sham states=            2
     kinetic-energy cutoff     =      30.0000  Ry
     charge density cutoff     =     120.0000  Ry
     scf convergence threshold =      1.0E-08
     mixing beta               =       0.7000
     number of iterations used =            8  plain     mixing
     energy convergence thresh.=      1.0E-04
     force convergence thresh. =      1.0E-03
     Exchange-correlation= BLYP
                           (   1   3   1   3   0   0   0)
     nstep                     =           50


     celldm(1)=  30.000000  celldm(2)=   0.000000  celldm(3)=   0.000000
     celldm(4)=   0.000000  celldm(5)=   0.000000  celldm(6)=   0.000000

     crystal axes: (cart. coord. in units of alat)
               a(1) = (   1.000000   0.000000   0.000000 )  
               a(2) = (   0.000000   1.000000   0.000000 )  
               a(3) = (   0.000000   0.000000   1.000000 )  

     reciprocal axes: (cart. coord. in units 2 pi/alat)
               b(1) = (  1.000000  0.000000  0.000000 )  
               b(2) = (  0.000000  1.000000  0.000000 )  
               b(3) = (  0.000000  0.000000  1.000000 )  


     PseudoPot. # 1 for hy read from file:
     /root/q-e/pseudo/H_US.van
     MD5 check sum: a9a9bfe98ff56cf4de197d71fc46bb44
     Pseudo is Ultrasoft, Zval =  1.0
     Generated by Vanderbilt code, v. 7.3.2
     Using radial grid of  399 points,  1 beta functions with: 
                l(1) =   0
     Q(r) pseudized with  8 coefficients,  rinner =    0.500

     atomic species   valence    mass     pseudopotential
        H              1.00     1.00784     hy( 1.00)

      8 Sym. Ops. (no inversion) found


                                    s                        frac. trans.

      isym =  1     identity                                     

 cryst.   s( 1) = (     1          0          0      )
                  (     0          1          0      )
                  (     0          0          1      )

 cart.    s( 1) = (  1.0000000  0.0000000  0.0000000 )
                  (  0.0000000  1.0000000  0.0000000 )
                  (  0.0000000  0.0000000  1.0000000 )


      isym =  2     180 deg rotation - cart. axis [1,0,0]        

 cryst.   s( 2) = (     1          0          0      )
                  (     0         -1          0      )
                  (     0          0         -1      )

 cart.    s( 2) = (  1.0000000  0.0000000  0.0000000 )
                  (  0.0000000 -1.0000000  0.0000000 )
                  (  0.0000000  0.0000000 -1.0000000 )


      isym =  3      90 deg rotation - cart. axis [-1,0,0]       

 cryst.   s( 3) = (     1          0          0      )
                  (     0          0         -1      )
                  (     0          1          0      )

 cart.    s( 3) = (  1.0000000  0.0000000  0.0000000 )
                  (  0.0000000  0.0000000  1.0000000 )
                  (  0.0000000 -1.0000000  0.0000000 )


      isym =  4      90 deg rotation - cart. axis [1,0,0]        

 cryst.   s( 4) = (     1          0          0      )
                  (     0          0          1      )
                  (     0         -1          0      )

 cart.    s( 4) = (  1.0000000  0.0000000  0.0000000 )
                  (  0.0000000  0.0000000 -1.0000000 )
                  (  0.0000000  1.0000000  0.0000000 )


      isym =  5     inv. 180 deg rotation - cart. axis [0,0,1]   

 cryst.   s( 5) = (     1          0          0      )
                  (     0          1          0      )
                  (     0          0         -1      )

 cart.    s( 5) = (  1.0000000  0.0000000  0.0000000 )
                  (  0.0000000  1.0000000  0.0000000 )
                  (  0.0000000  0.0000000 -1.0000000 )


      isym =  6     inv. 180 deg rotation - cart. axis [0,1,0]   

 cryst.   s( 6) = (     1          0          0      )
                  (     0         -1          0      )
                  (     0          0          1      )

 cart.    s( 6) = (  1.0000000  0.0000000  0.0000000 )
                  (  0.0000000 -1.0000000  0.0000000 )
                  (  0.0000000  0.0000000  1.0000000 )


      isym =  7     inv. 180 deg rotation - cart. axis [0,1,1]   

 cryst.   s( 7) = (     1          0          0      )
                  (     0          0         -1      )
                  (     0         -1          0      )

 cart.    s( 7) = (  1.0000000  0.0000000  0.0000000 )
                  (  0.0000000  0.0000000 -1.0000000 )
                  (  0.0000000 -1.0000000  0.0000000 )


      isym =  8     inv. 180 deg rotation - cart. axis [0,1,-1]  

 cryst.   s( 8) = (     1          0          0      )
                  (     0          0          1      )
                  (     0          1          0      )

 cart.    s( 8) = (  1.0000000  0.0000000  0.0000000 )
                  (  0.0000000  0.0000000  1.0000000 )
                  (  0.0000000  1.0000000  0.0000000 )


     point group C_4v (4mm) 
     there are  5 classes
     the character table:

       E     2C4   C2    2s_v  2s_d 
A_1    1.00  1.00  1.00  1.00  1.00
A_2    1.00  1.00  1.00 -1.00 -1.00
B_1    1.00 -1.00  1.00  1.00 -1.00
B_2    1.00 -1.00  1.00 -1.00  1.00
E      2.00  0.00 -2.00  0.00  0.00

     the symmetry operations in each class and the name of the first element:

     E        1
          identity                                               
     2C4      3    4
           90 deg rotation - cart. axis [-1,0,0]                 
     C2       2
          180 deg rotation - cart. axis [1,0,0]                  
     2s_v     5    6
          inv. 180 deg rotation - cart. axis [0,0,1]             
     2s_d     7    8
          inv. 180 deg rotation - cart. axis [0,1,1]             

   Cartesian axes

     site n.     atom                  positions (alat units)
         1           H   tau(   1) = (   0.0000000   0.0000000   0.0000000  )
         2           H   tau(   2) = (   0.0478731   0.0000000   0.0000000  )

   Crystallographic axes

     site n.     atom                  positions (cryst. coord.)
         1           H   tau(   1) = (  0.0000000  0.0000000  0.0000000  )
         2           H   tau(   2) = (  0.0478731  0.0000000  0.0000000  )

     number of k points=     1
                       cart. coord. in units 2pi/alat
        k(    1) = (  -0.5000000  -0.5000000  -0.5000000), wk =   2.0000000

                       cryst. coord.
        k(    1) = (  -0.5000000  -0.5000000  -0.5000000), wk =   2.0000000

     Dense  grid:   599161 G-vectors     FFT dimensions: ( 108, 108, 108)

     Dynamical RAM for                 wfc:       2.29 MB

     Dynamical RAM for     wfc (w. buffer):       2.29 MB

     Dynamical RAM for           str. fact:       9.14 MB

     Dynamical RAM for           local pot:       0.00 MB

     Dynamical RAM for          nlocal pot:       2.29 MB

     Dynamical RAM for                qrad:       0.01 MB

     Dynamical RAM for          rho,v,vnew:      56.26 MB

     Dynamical RAM for               rhoin:      18.75 MB

     Dynamical RAM for            rho*nmix:     146.28 MB

     Dynamical RAM for           G-vectors:      38.86 MB

     Dynamical RAM for          h,s,v(r/c):       0.00 MB

     Dynamical RAM for          <psi|beta>:       0.00 MB

     Dynamical RAM for                 psi:       4.57 MB

     Dynamical RAM for                hpsi:       4.57 MB

     Dynamical RAM for                spsi:       4.57 MB

     Dynamical RAM for      wfcinit/wfcrot:       4.57 MB

     Dynamical RAM for           addusdens:      54.85 MB

     Dynamical RAM for          addusforce:      77.71 MB

     Estimated static dynamical RAM per process >     193.93 MB

     Estimated max dynamical RAM per process >     417.92 MB

     Initial potential from superposition of free atoms

     starting charge       2.0000, renormalised to       2.0000

     negative rho (up, down):  1.522E-02 0.000E+00
     Starting wfcs are    2 randomized atomic wfcs

     total cpu time spent up to now is        1.1 secs

     Self-consistent Calculation

     iteration #  1     ecut=    30.00 Ry     beta= 0.70
     Davidson diagonalization with overlap

---- Real-time Memory Report at c_bands before calling an iterative solver
           332 MiB given to the printing process from OS
             0 MiB allocation reported by mallinfo(arena+hblkhd)
           375 MiB available memory on the node where the printing process lives
------------------
     ethr =  1.00E-02,  avg # of iterations =  3.0

     negative rho (up, down):  2.031E-02 0.000E+00

     total cpu time spent up to now is        2.2 secs

     total energy              =      -2.31111180 Ry
     estimated scf accuracy    <       0.11030699 Ry

     iteration #  2     ecut=    30.00 Ry     beta= 0.70
     Davidson diagonalization with overlap

---- Real-time Memory Report at c_bands before calling an iterative solver
           423 MiB given to the printing process from OS
             0 MiB allocation reported by mallinfo(arena+hblkhd)
           190 MiB available memory on the node where the printing process lives
------------------
     ethr =  5.52E-03,  avg # of iterations =  1.0

     negative rho (up, down):  2.135E-02 0.000E+00

     total cpu time spent up to now is        3.2 secs

     total energy              =      -2.31854909 Ry
     estimated scf accuracy    <       0.00108966 Ry

     iteration #  3     ecut=    30.00 Ry     beta= 0.70
     Davidson diagonalization with overlap

---- Real-time Memory Report at c_bands before calling an iterative solver
           442 MiB given to the printing process from OS
             0 MiB allocation reported by mallinfo(arena+hblkhd)
           172 MiB available memory on the node where the printing process lives
------------------
     ethr =  5.45E-05,  avg # of iterations = 11.0

     negative rho (up, down):  2.123E-02 0.000E+00

     total cpu time spent up to now is        4.8 secs

     total energy              =      -2.31898962 Ry
     estimated scf accuracy    <       0.00001341 Ry

     iteration #  4     ecut=    30.00 Ry     beta= 0.70
     Davidson diagonalization with overlap

---- Real-time Memory Report at c_bands before calling an iterative solver
           460 MiB given to the printing process from OS
             0 MiB allocation reported by mallinfo(arena+hblkhd)
           154 MiB available memory on the node where the printing process lives
------------------
     ethr =  6.71E-07,  avg # of iterations =  5.0

     negative rho (up, down):  2.122E-02 0.000E+00

     total cpu time spent up to now is        6.0 secs

     total energy              =      -2.31899970 Ry
     estimated scf accuracy    <       0.00000032 Ry

     iteration #  5     ecut=    30.00 Ry     beta= 0.70
     Davidson diagonalization with overlap

---- Real-time Memory Report at c_bands before calling an iterative solver
           479 MiB given to the printing process from OS
             0 MiB allocation reported by mallinfo(arena+hblkhd)
           136 MiB available memory on the node where the printing process lives
------------------
     ethr =  1.62E-08,  avg # of iterations =  1.0

     negative rho (up, down):  2.122E-02 0.000E+00

     total cpu time spent up to now is        7.0 secs

     End of self-consistent calculation

          k =-0.5000-0.5000-0.5000 ( 74736 PWs)   bands (ev):

   -10.2622  -0.6079

     occupation numbers 
     1.0000   0.0000

     highest occupied, lowest unoccupied level (ev):   -10.2622   -0.6079

!    total energy              =      -2.31899870 Ry
     estimated scf accuracy    <          8.3E-09 Ry

     The total energy is the sum of the following terms:
     one-electron contribution =      -4.17801469 Ry
     hartree contribution      =       2.21790648 Ry
     xc contribution           =      -1.37347684 Ry
     ewald contribution        =       1.01458634 Ry

     convergence has been achieved in   5 iterations

     Forces acting on atoms (cartesian axes, Ry/au):

     atom    1 type  1   force =     0.01310746    0.00000000    0.00000000
     atom    2 type  1   force =    -0.01310746    0.00000000    0.00000000
     The non-local contrib.  to forces
     atom    1 type  1   force =     0.10358392    0.00000000    0.00000000
     atom    2 type  1   force =    -0.10372661    0.00000000    0.00000000
     The ionic contribution  to forces
     atom    1 type  1   force =    -0.96917919   -0.00000000   -0.00000000
     atom    2 type  1   force =     0.96917919   -0.00000000   -0.00000000
     The local contribution  to forces
     atom    1 type  1   force =     0.87865191    0.00000000    0.00000000
     atom    2 type  1   force =    -0.87865856    0.00000000    0.00000000
     The core correction contribution to forces
     atom    1 type  1   force =     0.00000000    0.00000000    0.00000000
     atom    2 type  1   force =     0.00000000    0.00000000    0.00000000
     The Hubbard contrib.    to forces
     atom    1 type  1   force =     0.00000000    0.00000000    0.00000000
     atom    2 type  1   force =     0.00000000    0.00000000    0.00000000
     The SCF correction term to forces
     atom    1 type  1   force =    -0.00003165    0.00000000    0.00000000
     atom    2 type  1   force =     0.00001607    0.00000000    0.00000000

     Total force =     0.018537     Total SCF correction =     0.000035

     BFGS Geometry Optimization
     Energy error            =      0.0E+00 Ry
     Gradient error          =      1.3E-02 Ry/Bohr

     number of scf cycles    =   1
     number of bfgs steps    =   0

     energy             new  =      -2.3189987035 Ry

     new trust radius        =       0.0131074569 bohr
     new conv_thr            =       0.0000000100 Ry


ATOMIC_POSITIONS (angstrom)
H             0.0069361675        0.0000000000        0.0000000000
H             0.7530638325        0.0000000000        0.0000000000



     Writing config-only to output data dir ./.save/
     NEW-OLD atomic charge density approx. for the potential

     negative rho (up, down):  2.141E-02 0.000E+00

     total cpu time spent up to now is        8.0 secs

     Self-consistent Calculation

     iteration #  1     ecut=    30.00 Ry     beta= 0.70
     Davidson diagonalization with overlap

---- Real-time Memory Report at c_bands before calling an iterative solver
           488 MiB given to the printing process from OS
             0 MiB allocation reported by mallinfo(arena+hblkhd)
           362 MiB available memory on the node where the printing process lives
------------------
     ethr =  1.00E-06,  avg # of iterations =  3.0

     negative rho (up, down):  2.173E-02 0.000E+00

     total cpu time spent up to now is        9.2 secs

     total energy              =      -2.31881694 Ry
     estimated scf accuracy    <       0.00005393 Ry

     iteration #  2     ecut=    30.00 Ry     beta= 0.70
     Davidson diagonalization with overlap

---- Real-time Memory Report at c_bands before calling an iterative solver
           488 MiB given to the printing process from OS
             0 MiB allocation reported by mallinfo(arena+hblkhd)
           181 MiB available memory on the node where the printing process lives
------------------
     ethr =  2.70E-06,  avg # of iterations =  2.0

     negative rho (up, down):  2.181E-02 0.000E+00

     total cpu time spent up to now is       10.3 secs

     total energy              =      -2.31877907 Ry
     estimated scf accuracy    <       0.00000063 Ry

     iteration #  3     ecut=    30.00 Ry     beta= 0.70
     Davidson diagonalization with overlap

---- Real-time Memory Report at c_bands before calling an iterative solver
           488 MiB given to the printing process from OS
             0 MiB allocation reported by mallinfo(arena+hblkhd)
           162 MiB available memory on the node where the printing process lives
------------------
     ethr =  3.15E-08,  avg # of iterations =  2.0

     negative rho (up, down):  2.182E-02 0.000E+00

     total cpu time spent up to now is       11.5 secs

     total energy              =      -2.31876940 Ry
     estimated scf accuracy    <       0.00000003 Ry

     iteration #  4     ecut=    30.00 Ry     beta= 0.70
     Davidson diagonalization with overlap

---- Real-time Memory Report at c_bands before calling an iterative solver
           488 MiB given to the printing process from OS
             0 MiB allocation reported by mallinfo(arena+hblkhd)
           144 MiB available memory on the node where the printing process lives
------------------
     ethr =  1.34E-09,  avg # of iterations =  2.0

     negative rho (up, down):  2.182E-02 0.000E+00

     total cpu time spent up to now is       12.4 secs

     End of self-consistent calculation

          k =-0.5000-0.5000-0.5000 ( 74736 PWs)   bands (ev):

   -10.3298  -0.6369

     occupation numbers 
     1.0000   0.0000

     highest occupied, lowest unoccupied level (ev):   -10.3298   -0.6369

!    total energy              =      -2.31876910 Ry
     estimated scf accuracy    <          5.5E-11 Ry

     The total energy is the sum of the following terms:
     one-electron contribution =      -4.21345892 Ry
     hartree contribution      =       2.23648087 Ry
     xc contribution           =      -1.38225704 Ry
     ewald contribution        =       1.04046600 Ry

     convergence has been achieved in   4 iterations

     Forces acting on atoms (cartesian axes, Ry/au):

     atom    1 type  1   force =    -0.00611069    0.00000000    0.00000000
     atom    2 type  1   force =     0.00611069    0.00000000    0.00000000
     The non-local contrib.  to forces
     atom    1 type  1   force =     0.10658839    0.00000000    0.00000000
     atom    2 type  1   force =    -0.10664953    0.00000000    0.00000000
     The ionic contribution  to forces
     atom    1 type  1   force =    -1.00557816    0.00000000   -0.00000000
     atom    2 type  1   force =     1.00557816    0.00000000   -0.00000000
     The local contribution  to forces
     atom    1 type  1   force =     0.89285673    0.00000000    0.00000000
     atom    2 type  1   force =    -0.89284882    0.00000000    0.00000000
     The core correction contribution to forces
     atom    1 type  1   force =     0.00000000    0.00000000    0.00000000
     atom    2 type  1   force =     0.00000000    0.00000000    0.00000000
     The Hubbard contrib.    to forces
     atom    1 type  1   force =     0.00000000    0.00000000    0.00000000
     atom    2 type  1   force =     0.00000000    0.00000000    0.00000000
     The SCF correction term to forces
     atom    1 type  1   force =    -0.00000418   -0.00000000   -0.00000000
     atom    2 type  1   force =     0.00000436    0.00000000   -0.00000000

     Total force =     0.008642     Total SCF correction =     0.000006
     Energy error            =      2.3E-04 Ry
     Gradient error          =      6.1E-03 Ry/Bohr

     number of scf cycles    =   2
     number of bfgs steps    =   1

     energy             old  =      -2.3189987035 Ry
     energy             new  =      -2.3187691029 Ry

     CASE: energy            _new > energy            _old

     new trust radius        =       0.0039286233 bohr
     new conv_thr            =       0.0000000100 Ry


ATOMIC_POSITIONS (angstrom)
H             0.0020789379        0.0000000000        0.0000000000
H             0.7579210621        0.0000000000        0.0000000000



     Writing config-only to output data dir ./.save/
     NEW-OLD atomic charge density approx. for the potential

     negative rho (up, down):  2.168E-02 0.000E+00

     total cpu time spent up to now is       13.6 secs

     Self-consistent Calculation

     iteration #  1     ecut=    30.00 Ry     beta= 0.70
     Davidson diagonalization with overlap

---- Real-time Memory Report at c_bands before calling an iterative solver
           488 MiB given to the printing process from OS
             0 MiB allocation reported by mallinfo(arena+hblkhd)
           362 MiB available memory on the node where the printing process lives
------------------
     ethr =  1.00E-06,  avg # of iterations =  3.0

     negative rho (up, down):  2.146E-02 0.000E+00

     total cpu time spent up to now is       14.8 secs

     total energy              =      -2.31895586 Ry
     estimated scf accuracy    <       0.00002725 Ry

     iteration #  2     ecut=    30.00 Ry     beta= 0.70
     Davidson diagonalization with overlap

---- Real-time Memory Report at c_bands before calling an iterative solver
           488 MiB given to the printing process from OS
             0 MiB allocation reported by mallinfo(arena+hblkhd)
           181 MiB available memory on the node where the printing process lives
------------------
     ethr =  1.36E-06,  avg # of iterations =  1.0

     negative rho (up, down):  2.141E-02 0.000E+00

     total cpu time spent up to now is       15.8 secs

     total energy              =      -2.31899028 Ry
     estimated scf accuracy    <       0.00000030 Ry

     iteration #  3     ecut=    30.00 Ry     beta= 0.70
     Davidson diagonalization with overlap

---- Real-time Memory Report at c_bands before calling an iterative solver
           488 MiB given to the printing process from OS
             0 MiB allocation reported by mallinfo(arena+hblkhd)
           162 MiB available memory on the node where the printing process lives
------------------
     ethr =  1.51E-08,  avg # of iterations =  2.0

     negative rho (up, down):  2.140E-02 0.000E+00

     total cpu time spent up to now is       16.9 secs

     total energy              =      -2.31899231 Ry
     estimated scf accuracy    <       0.00000001 Ry

     iteration #  4     ecut=    30.00 Ry     beta= 0.70
     Davidson diagonalization with overlap

---- Real-time Memory Report at c_bands before calling an iterative solver
           488 MiB given to the printing process from OS
             0 MiB allocation reported by mallinfo(arena+hblkhd)
           144 MiB available memory on the node where the printing process lives
------------------
     ethr =  6.75E-10,  avg # of iterations =  2.0

     negative rho (up, down):  2.140E-02 0.000E+00

     total cpu time spent up to now is       17.9 secs

     End of self-consistent calculation

          k =-0.5000-0.5000-0.5000 ( 74736 PWs)   bands (ev):

   -10.2821  -0.6168

     occupation numbers 
     1.0000   0.0000

     highest occupied, lowest unoccupied level (ev):   -10.2821   -0.6168

!    total energy              =      -2.31899298 Ry
     estimated scf accuracy    <          2.0E-11 Ry

     The total energy is the sum of the following terms:
     one-electron contribution =      -4.18852709 Ry
     hartree contribution      =       2.22334532 Ry
     xc contribution           =      -1.37605455 Ry
     ewald contribution        =       1.02224334 Ry

     convergence has been achieved in   4 iterations

     Forces acting on atoms (cartesian axes, Ry/au):

     atom    1 type  1   force =     0.00753197    0.00000000    0.00000000
     atom    2 type  1   force =    -0.00753197    0.00000000    0.00000000
     The non-local contrib.  to forces
     atom    1 type  1   force =     0.10449527    0.00000000    0.00000000
     atom    2 type  1   force =    -0.10462837    0.00000000    0.00000000
     The ionic contribution  to forces
     atom    1 type  1   force =    -0.97987883   -0.00000000   -0.00000000
     atom    2 type  1   force =     0.97987883    0.00000000   -0.00000000
     The local contribution  to forces
     atom    1 type  1   force =     0.88284822    0.00000000    0.00000000
     atom    2 type  1   force =    -0.88284547    0.00000000    0.00000000
     The core correction contribution to forces
     atom    1 type  1   force =     0.00000000    0.00000000    0.00000000
     atom    2 type  1   force =     0.00000000    0.00000000    0.00000000
     The Hubbard contrib.    to forces
     atom    1 type  1   force =     0.00000000    0.00000000    0.00000000
     atom    2 type  1   force =     0.00000000    0.00000000    0.00000000
     The SCF correction term to forces
     atom    1 type  1   force =     0.00001117   -0.00000000    0.00000000
     atom    2 type  1   force =     0.00000690    0.00000000    0.00000000

     Total force =     0.010652     Total SCF correction =     0.000013
     Energy error            =      5.7E-06 Ry
     Gradient error          =      7.5E-03 Ry/Bohr

     number of scf cycles    =   3
     number of bfgs steps    =   1

     energy             old  =      -2.3189987035 Ry
     energy             new  =      -2.3189929783 Ry

     CASE: energy            _new > energy            _old

     new trust radius        =       0.0018608635 bohr
     new conv_thr            =       0.0000000100 Ry


ATOMIC_POSITIONS (angstrom)
H             0.0009847265        0.0000000000        0.0000000000
H             0.7590152735        0.0000000000        0.0000000000



     Writing config-only to output data dir ./.save/
     NEW-OLD atomic charge density approx. for the potential

     negative rho (up, down):  2.137E-02 0.000E+00

     total cpu time spent up to now is       19.0 secs

     Self-consistent Calculation

     iteration #  1     ecut=    30.00 Ry     beta= 0.70
     Davidson diagonalization with overlap

---- Real-time Memory Report at c_bands before calling an iterative solver
           488 MiB given to the printing process from OS
             0 MiB allocation reported by mallinfo(arena+hblkhd)
           362 MiB available memory on the node where the printing process lives
------------------
     ethr =  1.00E-06,  avg # of iterations =  2.0

     Threshold (ethr) on eigenvalues was too large:
     Diagonalizing with lowered threshold

     Davidson diagonalization with overlap

---- Real-time Memory Report at c_bands before calling an iterative solver
           488 MiB given to the printing process from OS
             0 MiB allocation reported by mallinfo(arena+hblkhd)
           328 MiB available memory on the node where the printing process lives
------------------
     ethr =  6.24E-08,  avg # of iterations =  1.0

     negative rho (up, down):  2.132E-02 0.000E+00

     total cpu time spent up to now is       20.4 secs

     total energy              =      -2.31899120 Ry
     estimated scf accuracy    <       0.00000132 Ry

     iteration #  2     ecut=    30.00 Ry     beta= 0.70
     Davidson diagonalization with overlap

---- Real-time Memory Report at c_bands before calling an iterative solver
           488 MiB given to the printing process from OS
             0 MiB allocation reported by mallinfo(arena+hblkhd)
           181 MiB available memory on the node where the printing process lives
------------------
     ethr =  6.61E-08,  avg # of iterations =  1.0

     negative rho (up, down):  2.131E-02 0.000E+00

     total cpu time spent up to now is       21.4 secs

     total energy              =      -2.31899735 Ry
     estimated scf accuracy    <       0.00000002 Ry

     iteration #  3     ecut=    30.00 Ry     beta= 0.70
     Davidson diagonalization with overlap

---- Real-time Memory Report at c_bands before calling an iterative solver
           488 MiB given to the printing process from OS
             0 MiB allocation reported by mallinfo(arena+hblkhd)
           162 MiB available memory on the node where the printing process lives
------------------
     ethr =  8.55E-10,  avg # of iterations =  2.0

     negative rho (up, down):  2.131E-02 0.000E+00

     total cpu time spent up to now is       22.4 secs

     End of self-consistent calculation

          k =-0.5000-0.5000-0.5000 ( 74736 PWs)   bands (ev):

   -10.2716  -0.6122

     occupation numbers 
     1.0000   0.0000

     highest occupied, lowest unoccupied level (ev):   -10.2716   -0.6122

!    total energy              =      -2.31899702 Ry
     estimated scf accuracy    <          7.9E-10 Ry

     The total energy is the sum of the following terms:
     one-electron contribution =      -4.18296553 Ry
     hartree contribution      =       2.22043591 Ry
     xc contribution           =      -1.37467014 Ry
     ewald contribution        =       1.01820274 Ry

     convergence has been achieved in   3 iterations

     Forces acting on atoms (cartesian axes, Ry/au):

     atom    1 type  1   force =     0.01048105    0.00000000    0.00000000
     atom    2 type  1   force =    -0.01048105    0.00000000    0.00000000
     The non-local contrib.  to forces
     atom    1 type  1   force =     0.10403599    0.00000000    0.00000000
     atom    2 type  1   force =    -0.10415639    0.00000000    0.00000000
     The ionic contribution  to forces
     atom    1 type  1   force =    -0.97422532   -0.00000000   -0.00000000
     atom    2 type  1   force =     0.97422532   -0.00000000   -0.00000000
     The local contribution  to forces
     atom    1 type  1   force =     0.88061988    0.00000000    0.00000000
     atom    2 type  1   force =    -0.88061407    0.00000000    0.00000000
     The core correction contribution to forces
     atom    1 type  1   force =     0.00000000    0.00000000    0.00000000
     atom    2 type  1   force =     0.00000000    0.00000000    0.00000000
     The Hubbard contrib.    to forces
     atom    1 type  1   force =     0.00000000    0.00000000    0.00000000
     atom    2 type  1   force =     0.00000000    0.00000000    0.00000000
     The SCF correction term to forces
     atom    1 type  1   force =    -0.00000419   -0.00000000   -0.00000000
     atom    2 type  1   force =     0.00000939   -0.00000000    0.00000000

     Total force =     0.014822     Total SCF correction =     0.000010
     Energy error            =      1.7E-06 Ry
     Gradient error          =      1.0E-02 Ry/Bohr

     number of scf cycles    =   4
     number of bfgs steps    =   1

     energy             old  =      -2.3189987035 Ry
     energy             new  =      -2.3189970179 Ry

     CASE: energy            _new > energy            _old

     new trust radius        =       0.0008993552 bohr
     new conv_thr            =       0.0000000100 Ry


ATOMIC_POSITIONS (angstrom)
H             0.0004759183        0.0000000000        0.0000000000
H             0.7595240817        0.0000000000        0.0000000000



     Writing config-only to output data dir ./.save/
     NEW-OLD atomic charge density approx. for the potential

     negative rho (up, down):  2.129E-02 0.000E+00

     total cpu time spent up to now is       23.5 secs

     Self-consistent Calculation

     iteration #  1     ecut=    30.00 Ry     beta= 0.70
     Davidson diagonalization with overlap

---- Real-time Memory Report at c_bands before calling an iterative solver
           488 MiB given to the printing process from OS
             0 MiB allocation reported by mallinfo(arena+hblkhd)
           362 MiB available memory on the node where the printing process lives
------------------
     ethr =  1.00E-06,  avg # of iterations =  2.0

     Threshold (ethr) on eigenvalues was too large:
     Diagonalizing with lowered threshold

     Davidson diagonalization with overlap

---- Real-time Memory Report at c_bands before calling an iterative solver
           488 MiB given to the printing process from OS
             0 MiB allocation reported by mallinfo(arena+hblkhd)
           328 MiB available memory on the node where the printing process lives
------------------
     ethr =  1.37E-08,  avg # of iterations =  1.0

     negative rho (up, down):  2.127E-02 0.000E+00

     total cpu time spent up to now is       24.9 secs

     total energy              =      -2.31899556 Ry
     estimated scf accuracy    <       0.00000029 Ry

     iteration #  2     ecut=    30.00 Ry     beta= 0.70
     Davidson diagonalization with overlap

---- Real-time Memory Report at c_bands before calling an iterative solver
           488 MiB given to the printing process from OS
             0 MiB allocation reported by mallinfo(arena+hblkhd)
           181 MiB available memory on the node where the printing process lives
------------------
     ethr =  1.45E-08,  avg # of iterations =  2.0

     negative rho (up, down):  2.126E-02 0.000E+00

     total cpu time spent up to now is       25.9 secs

     End of self-consistent calculation

          k =-0.5000-0.5000-0.5000 ( 74736 PWs)   bands (ev):

   -10.2662  -0.6111

     occupation numbers 
     1.0000   0.0000

     highest occupied, lowest unoccupied level (ev):   -10.2662   -0.6111

!    total energy              =      -2.31899773 Ry
     estimated scf accuracy    <          3.3E-09 Ry

     The total energy is the sum of the following terms:
     one-electron contribution =      -4.18036994 Ry
     hartree contribution      =       2.21905670 Ry
     xc contribution           =      -1.37401629 Ry
     ewald contribution        =       1.01633180 Ry

     convergence has been achieved in   2 iterations

     Forces acting on atoms (cartesian axes, Ry/au):

     atom    1 type  1   force =     0.01180790    0.00000000    0.00000000
     atom    2 type  1   force =    -0.01180790    0.00000000    0.00000000
     The non-local contrib.  to forces
     atom    1 type  1   force =     0.10380594    0.00000000    0.00000000
     atom    2 type  1   force =    -0.10392265    0.00000000    0.00000000
     The ionic contribution  to forces
     atom    1 type  1   force =    -0.97161308   -0.00000000   -0.00000000
     atom    2 type  1   force =     0.97161308    0.00000000   -0.00000000
     The local contribution  to forces
     atom    1 type  1   force =     0.87956404    0.00000000    0.00000000
     atom    2 type  1   force =    -0.87955807    0.00000000    0.00000000
     The core correction contribution to forces
     atom    1 type  1   force =     0.00000000    0.00000000    0.00000000
     atom    2 type  1   force =     0.00000000    0.00000000    0.00000000
     The Hubbard contrib.    to forces
     atom    1 type  1   force =     0.00000000    0.00000000    0.00000000
     atom    2 type  1   force =     0.00000000    0.00000000    0.00000000
     The SCF correction term to forces
     atom    1 type  1   force =    -0.00000514   -0.00000000   -0.00000000
     atom    2 type  1   force =     0.00000361   -0.00000000   -0.00000000

     Total force =     0.016699     Total SCF correction =     0.000006
     Energy error            =      9.7E-07 Ry
     Gradient error          =      1.2E-02 Ry/Bohr

     number of scf cycles    =   5
     number of bfgs steps    =   1

     energy             old  =      -2.3189987035 Ry
     energy             new  =      -2.3189977332 Ry

     CASE: energy            _new > energy            _old

     new trust radius        =       0.0004319020 bohr
     new conv_thr            =       0.0000000100 Ry


ATOMIC_POSITIONS (angstrom)
H             0.0002285527        0.0000000000        0.0000000000
H             0.7597714473        0.0000000000        0.0000000000



     Writing config-only to output data dir ./.save/
     NEW-OLD atomic charge density approx. for the potential

     negative rho (up, down):  2.125E-02 0.000E+00

     total cpu time spent up to now is       27.0 secs

     Self-consistent Calculation

     iteration #  1     ecut=    30.00 Ry     beta= 0.70
     Davidson diagonalization with overlap

---- Real-time Memory Report at c_bands before calling an iterative solver
           488 MiB given to the printing process from OS
             0 MiB allocation reported by mallinfo(arena+hblkhd)
           362 MiB available memory on the node where the printing process lives
------------------
     ethr =  1.00E-06,  avg # of iterations =  2.0

     Threshold (ethr) on eigenvalues was too large:
     Diagonalizing with lowered threshold

     Davidson diagonalization with overlap

---- Real-time Memory Report at c_bands before calling an iterative solver
           488 MiB given to the printing process from OS
             0 MiB allocation reported by mallinfo(arena+hblkhd)
           328 MiB available memory on the node where the printing process lives
------------------
     ethr =  2.78E-09,  avg # of iterations =  1.0

     negative rho (up, down):  2.124E-02 0.000E+00

     total cpu time spent up to now is       28.4 secs

     total energy              =      -2.31899601 Ry
     estimated scf accuracy    <       0.00000006 Ry

     iteration #  2     ecut=    30.00 Ry     beta= 0.70
     Davidson diagonalization with overlap

---- Real-time Memory Report at c_bands before calling an iterative solver
           488 MiB given to the printing process from OS
             0 MiB allocation reported by mallinfo(arena+hblkhd)
           181 MiB available memory on the node where the printing process lives
------------------
     ethr =  2.97E-09,  avg # of iterations =  2.0

     negative rho (up, down):  2.124E-02 0.000E+00

     total cpu time spent up to now is       29.4 secs

     End of self-consistent calculation

          k =-0.5000-0.5000-0.5000 ( 74736 PWs)   bands (ev):

   -10.2638  -0.6096

     occupation numbers 
     1.0000   0.0000

     highest occupied, lowest unoccupied level (ev):   -10.2638   -0.6096

!    total energy              =      -2.31899796 Ry
     estimated scf accuracy    <          8.8E-10 Ry

     The total energy is the sum of the following terms:
     one-electron contribution =      -4.17912155 Ry
     hartree contribution      =       2.21841121 Ry
     xc contribution           =      -1.37371166 Ry
     ewald contribution        =       1.01542403 Ry

     convergence has been achieved in   2 iterations

     Forces acting on atoms (cartesian axes, Ry/au):

     atom    1 type  1   force =     0.01245857    0.00000000    0.00000000
     atom    2 type  1   force =    -0.01245857    0.00000000    0.00000000
     The non-local contrib.  to forces
     atom    1 type  1   force =     0.10368532    0.00000000    0.00000000
     atom    2 type  1   force =    -0.10381402    0.00000000    0.00000000
     The ionic contribution  to forces
     atom    1 type  1   force =    -0.97034689    0.00000000   -0.00000000
     atom    2 type  1   force =     0.97034689    0.00000000   -0.00000000
     The local contribution  to forces
     atom    1 type  1   force =     0.87906541    0.00000000    0.00000000
     atom    2 type  1   force =    -0.87905910    0.00000000    0.00000000
     The core correction contribution to forces
     atom    1 type  1   force =     0.00000000    0.00000000    0.00000000
     atom    2 type  1   force =     0.00000000    0.00000000    0.00000000
     The Hubbard contrib.    to forces
     atom    1 type  1   force =     0.00000000    0.00000000    0.00000000
     atom    2 type  1   force =     0.00000000    0.00000000    0.00000000
     The SCF correction term to forces
     atom    1 type  1   force =    -0.00001628    0.00000000    0.00000000
     atom    2 type  1   force =    -0.00000335   -0.00000000    0.00000000

     Total force =     0.017619     Total SCF correction =     0.000017
     Energy error            =      7.4E-07 Ry
     Gradient error          =      1.2E-02 Ry/Bohr

     number of scf cycles    =   6
     number of bfgs steps    =   1

     energy             old  =      -2.3189987035 Ry
     energy             new  =      -2.3189979642 Ry

     CASE: energy            _new > energy            _old

     new trust radius        =       0.0002027138 bohr
     new conv_thr            =       0.0000000100 Ry


ATOMIC_POSITIONS (angstrom)
H             0.0001072715        0.0000000000        0.0000000000
H             0.7598927285        0.0000000000        0.0000000000



     Writing config-only to output data dir ./.save/
     NEW-OLD atomic charge density approx. for the potential

     negative rho (up, down):  2.124E-02 0.000E+00

     total cpu time spent up to now is       30.5 secs

     Self-consistent Calculation

     iteration #  1     ecut=    30.00 Ry     beta= 0.70
     Davidson diagonalization with overlap

---- Real-time Memory Report at c_bands before calling an iterative solver
           488 MiB given to the printing process from OS
             0 MiB allocation reported by mallinfo(arena+hblkhd)
           362 MiB available memory on the node where the printing process lives
------------------
     ethr =  1.00E-06,  avg # of iterations =  2.0

     Threshold (ethr) on eigenvalues was too large:
     Diagonalizing with lowered threshold

     Davidson diagonalization with overlap

---- Real-time Memory Report at c_bands before calling an iterative solver
           488 MiB given to the printing process from OS
             0 MiB allocation reported by mallinfo(arena+hblkhd)
           328 MiB available memory on the node where the printing process lives
------------------
     ethr =  5.80E-10,  avg # of iterations =  1.0

     negative rho (up, down):  2.123E-02 0.000E+00

     total cpu time spent up to now is       31.9 secs

     total energy              =      -2.31899711 Ry
     estimated scf accuracy    <       0.00000001 Ry

     iteration #  2     ecut=    30.00 Ry     beta= 0.70
     Davidson diagonalization with overlap

---- Real-time Memory Report at c_bands before calling an iterative solver
           488 MiB given to the printing process from OS
             0 MiB allocation reported by mallinfo(arena+hblkhd)
           181 MiB available memory on the node where the printing process lives
------------------
     ethr =  6.35E-10,  avg # of iterations =  2.0

     negative rho (up, down):  2.123E-02 0.000E+00

     total cpu time spent up to now is       32.9 secs

     End of self-consistent calculation

          k =-0.5000-0.5000-0.5000 ( 74736 PWs)   bands (ev):

   -10.2625  -0.6086

     occupation numbers 
     1.0000   0.0000

     highest occupied, lowest unoccupied level (ev):   -10.2625   -0.6086

!    total energy              =      -2.31899907 Ry
     estimated scf accuracy    <          2.5E-10 Ry

     The total energy is the sum of the following terms:
     one-electron contribution =      -4.17851484 Ry
     hartree contribution      =       2.21810437 Ry
     xc contribution           =      -1.37356798 Ry
     ewald contribution        =       1.01497939 Ry

     convergence has been achieved in   2 iterations

     Forces acting on atoms (cartesian axes, Ry/au):

     atom    1 type  1   force =     0.01279410    0.00000000    0.00000000
     atom    2 type  1   force =    -0.01279410    0.00000000    0.00000000
     The non-local contrib.  to forces
     atom    1 type  1   force =     0.10364302    0.00000000    0.00000000
     atom    2 type  1   force =    -0.10375969    0.00000000    0.00000000
     The ionic contribution  to forces
     atom    1 type  1   force =    -0.96972698    0.00000000   -0.00000000
     atom    2 type  1   force =     0.96972698   -0.00000000   -0.00000000
     The local contribution  to forces
     atom    1 type  1   force =     0.87882064    0.00000000    0.00000000
     atom    2 type  1   force =    -0.87882242    0.00000000    0.00000000
     The core correction contribution to forces
     atom    1 type  1   force =     0.00000000    0.00000000    0.00000000
     atom    2 type  1   force =     0.00000000    0.00000000    0.00000000
     The Hubbard contrib.    to forces
     atom    1 type  1   force =     0.00000000    0.00000000    0.00000000
     atom    2 type  1   force =     0.00000000    0.00000000    0.00000000
     The SCF correction term to forces
     atom    1 type  1   force =     0.00001213    0.00000000    0.00000000
     atom    2 type  1   force =     0.00001573    0.00000000    0.00000000

     Total force =     0.018094     Total SCF correction =     0.000020
     Energy error            =      3.7E-07 Ry
     Gradient error          =      1.3E-02 Ry/Bohr

     number of scf cycles    =   7
     number of bfgs steps    =   1

     energy             old  =      -2.3189987035 Ry
     energy             new  =      -2.3189990724 Ry

     CASE: energy            _new < energy            _old

     new trust radius        =       0.0003040706 bohr
     new conv_thr            =            1.0E-10 Ry


ATOMIC_POSITIONS (angstrom)
H             0.0002681788        0.0000000000        0.0000000000
H             0.7597318212        0.0000000000        0.0000000000



     Writing config-only to output data dir ./.save/
     NEW-OLD atomic charge density approx. for the potential

     negative rho (up, down):  2.123E-02 0.000E+00

     total cpu time spent up to now is       34.0 secs

     Self-consistent Calculation

     iteration #  1     ecut=    30.00 Ry     beta= 0.70
     Davidson diagonalization with overlap

---- Real-time Memory Report at c_bands before calling an iterative solver
           488 MiB given to the printing process from OS
             0 MiB allocation reported by mallinfo(arena+hblkhd)
           362 MiB available memory on the node where the printing process lives
------------------
     ethr =  1.00E-06,  avg # of iterations =  2.0

     Threshold (ethr) on eigenvalues was too large:
     Diagonalizing with lowered threshold

     Davidson diagonalization with overlap

---- Real-time Memory Report at c_bands before calling an iterative solver
           488 MiB given to the printing process from OS
             0 MiB allocation reported by mallinfo(arena+hblkhd)
           328 MiB available memory on the node where the printing process lives
------------------
     ethr =  1.36E-09,  avg # of iterations =  1.0

     negative rho (up, down):  2.124E-02 0.000E+00

     total cpu time spent up to now is       35.4 secs

     total energy              =      -2.31899933 Ry
     estimated scf accuracy    <       0.00000003 Ry

     iteration #  2     ecut=    30.00 Ry     beta= 0.70
     Davidson diagonalization with overlap

---- Real-time Memory Report at c_bands before calling an iterative solver
           488 MiB given to the printing process from OS
             0 MiB allocation reported by mallinfo(arena+hblkhd)
           181 MiB available memory on the node where the printing process lives
------------------
     ethr =  1.44E-09,  avg # of iterations =  2.0

     negative rho (up, down):  2.124E-02 0.000E+00

     total cpu time spent up to now is       36.5 secs

     total energy              =      -2.31899822 Ry
     estimated scf accuracy    <          4.7E-10 Ry

     iteration #  3     ecut=    30.00 Ry     beta= 0.70
     Davidson diagonalization with overlap

---- Real-time Memory Report at c_bands before calling an iterative solver
           488 MiB given to the printing process from OS
             0 MiB allocation reported by mallinfo(arena+hblkhd)
           162 MiB available memory on the node where the printing process lives
------------------
     ethr =  2.34E-11,  avg # of iterations =  3.0

     negative rho (up, down):  2.124E-02 0.000E+00

     total cpu time spent up to now is       37.5 secs

     End of self-consistent calculation

          k =-0.5000-0.5000-0.5000 ( 74736 PWs)   bands (ev):

   -10.2641  -0.6098

     occupation numbers 
     1.0000   0.0000

     highest occupied, lowest unoccupied level (ev):   -10.2641   -0.6098

!    total energy              =      -2.31899844 Ry
     estimated scf accuracy    <          5.7E-11 Ry

     The total energy is the sum of the following terms:
     one-electron contribution =      -4.17932866 Ry
     hartree contribution      =       2.21852880 Ry
     xc contribution           =      -1.37376794 Ry
     ewald contribution        =       1.01556937 Ry

     convergence has been achieved in   3 iterations

     Forces acting on atoms (cartesian axes, Ry/au):

     atom    1 type  1   force =     0.01237856    0.00000000    0.00000000
     atom    2 type  1   force =    -0.01237856    0.00000000    0.00000000
     The non-local contrib.  to forces
     atom    1 type  1   force =     0.10370949    0.00000000    0.00000000
     atom    2 type  1   force =    -0.10383609    0.00000000    0.00000000
     The ionic contribution  to forces
     atom    1 type  1   force =    -0.97054955    0.00000000   -0.00000000
     atom    2 type  1   force =     0.97054955   -0.00000000   -0.00000000
     The local contribution  to forces
     atom    1 type  1   force =     0.87915248    0.00000000    0.00000000
     atom    2 type  1   force =    -0.87914644    0.00000000    0.00000000
     The core correction contribution to forces
     atom    1 type  1   force =     0.00000000    0.00000000    0.00000000
     atom    2 type  1   force =     0.00000000    0.00000000    0.00000000
     The Hubbard contrib.    to forces
     atom    1 type  1   force =     0.00000000    0.00000000    0.00000000
     atom    2 type  1   force =     0.00000000    0.00000000    0.00000000
     The SCF correction term to forces
     atom    1 type  1   force =    -0.00000225    0.00000000   -0.00000000
     atom    2 type  1   force =    -0.00001399    0.00000000    0.00000000

     Total force =     0.017506     Total SCF correction =     0.000014
     Energy error            =      6.3E-07 Ry
     Gradient error          =      1.2E-02 Ry/Bohr

     number of scf cycles    =   8
     number of bfgs steps    =   2

     energy             old  =      -2.3189990724 Ry
     energy             new  =      -2.3189984394 Ry

     CASE: energy            _new > energy            _old

     new trust radius        =       0.0001405973 bohr
     new conv_thr            =            1.0E-10 Ry


ATOMIC_POSITIONS (angstrom)
H             0.0001816724        0.0000000000        0.0000000000
H             0.7598183276        0.0000000000        0.0000000000



     Writing config-only to output data dir ./.save/
     NEW-OLD atomic charge density approx. for the potential

     negative rho (up, down):  2.124E-02 0.000E+00

     total cpu time spent up to now is       38.6 secs

     Self-consistent Calculation

     iteration #  1     ecut=    30.00 Ry     beta= 0.70
     Davidson diagonalization with overlap

---- Real-time Memory Report at c_bands before calling an iterative solver
           488 MiB given to the printing process from OS
             0 MiB allocation reported by mallinfo(arena+hblkhd)
           362 MiB available memory on the node where the printing process lives
------------------
     ethr =  1.00E-06,  avg # of iterations =  2.0

     Threshold (ethr) on eigenvalues was too large:
     Diagonalizing with lowered threshold

     Davidson diagonalization with overlap

---- Real-time Memory Report at c_bands before calling an iterative solver
           488 MiB given to the printing process from OS
             0 MiB allocation reported by mallinfo(arena+hblkhd)
           328 MiB available memory on the node where the printing process lives
------------------
     ethr =  3.09E-10,  avg # of iterations =  1.0

     negative rho (up, down):  2.124E-02 0.000E+00

     total cpu time spent up to now is       40.0 secs

     total energy              =      -2.31899653 Ry
     estimated scf accuracy    <          6.9E-09 Ry

     iteration #  2     ecut=    30.00 Ry     beta= 0.70
     Davidson diagonalization with overlap

---- Real-time Memory Report at c_bands before calling an iterative solver
           488 MiB given to the printing process from OS
             0 MiB allocation reported by mallinfo(arena+hblkhd)
           181 MiB available memory on the node where the printing process lives
------------------
     ethr =  3.46E-10,  avg # of iterations =  2.0

     negative rho (up, down):  2.124E-02 0.000E+00

     total cpu time spent up to now is       41.1 secs

     total energy              =      -2.31899783 Ry
     estimated scf accuracy    <          1.9E-10 Ry

     iteration #  3     ecut=    30.00 Ry     beta= 0.70
     Davidson diagonalization with overlap

---- Real-time Memory Report at c_bands before calling an iterative solver
           488 MiB given to the printing process from OS
             0 MiB allocation reported by mallinfo(arena+hblkhd)
           162 MiB available memory on the node where the printing process lives
------------------
     ethr =  9.34E-12,  avg # of iterations =  3.0

     negative rho (up, down):  2.124E-02 0.000E+00

     total cpu time spent up to now is       42.1 secs

     End of self-consistent calculation

          k =-0.5000-0.5000-0.5000 ( 74736 PWs)   bands (ev):

   -10.2634  -0.6091

     occupation numbers 
     1.0000   0.0000

     highest occupied, lowest unoccupied level (ev):   -10.2634   -0.6091

!    total energy              =      -2.31899798 Ry
     estimated scf accuracy    <          4.4E-11 Ry

     The total energy is the sum of the following terms:
     one-electron contribution =      -4.17889798 Ry
     hartree contribution      =       2.21831393 Ry
     xc contribution           =      -1.37366605 Ry
     ewald contribution        =       1.01525212 Ry

     convergence has been achieved in   3 iterations

     Forces acting on atoms (cartesian axes, Ry/au):

     atom    1 type  1   force =     0.01259982    0.00000000    0.00000000
     atom    2 type  1   force =    -0.01259982    0.00000000    0.00000000
     The non-local contrib.  to forces
     atom    1 type  1   force =     0.10368485    0.00000000    0.00000000
     atom    2 type  1   force =    -0.10377812    0.00000000    0.00000000
     The ionic contribution  to forces
     atom    1 type  1   force =    -0.97010720   -0.00000000   -0.00000000
     atom    2 type  1   force =     0.97010720    0.00000000   -0.00000000
     The local contribution  to forces
     atom    1 type  1   force =     0.87897997    0.00000000    0.00000000
     atom    2 type  1   force =    -0.87898069    0.00000000    0.00000000
     The core correction contribution to forces
     atom    1 type  1   force =     0.00000000    0.00000000    0.00000000
     atom    2 type  1   force =     0.00000000    0.00000000    0.00000000
     The Hubbard contrib.    to forces
     atom    1 type  1   force =     0.00000000    0.00000000    0.00000000
     atom    2 type  1   force =     0.00000000    0.00000000    0.00000000
     The SCF correction term to forces
     atom    1 type  1   force =     0.00001550    0.00000000    0.00000000
     atom    2 type  1   force =     0.00002510    0.00000000    0.00000000

     Total force =     0.017819     Total SCF correction =     0.000030
     Energy error            =      1.1E-06 Ry
     Gradient error          =      1.3E-02 Ry/Bohr

     number of scf cycles    =   9
     number of bfgs steps    =   2

     energy             old  =      -2.3189990724 Ry
     energy             new  =      -2.3189979767 Ry

     CASE: energy            _new > energy            _old

     new trust radius        =       0.0000538867 bohr

     trust_radius < trust_radius_min

     resetting bfgs history

     new conv_thr            =            1.0E-10 Ry


ATOMIC_POSITIONS (angstrom)
H             0.0068776196        0.0000000000        0.0000000000
H             0.7531223804        0.0000000000        0.0000000000



     Writing config-only to output data dir ./.save/
     NEW-OLD atomic charge density approx. for the potential

     negative rho (up, down):  2.141E-02 0.000E+00

     total cpu time spent up to now is       43.2 secs

     Self-consistent Calculation

     iteration #  1     ecut=    30.00 Ry     beta= 0.70
     Davidson diagonalization with overlap

---- Real-time Memory Report at c_bands before calling an iterative solver
           488 MiB given to the printing process from OS
             0 MiB allocation reported by mallinfo(arena+hblkhd)
           362 MiB available memory on the node where the printing process lives
------------------
     ethr =  1.00E-06,  avg # of iterations =  3.0

     negative rho (up, down):  2.173E-02 0.000E+00

     total cpu time spent up to now is       44.5 secs

     total energy              =      -2.31881957 Ry
     estimated scf accuracy    <       0.00005091 Ry

     iteration #  2     ecut=    30.00 Ry     beta= 0.70
     Davidson diagonalization with overlap

---- Real-time Memory Report at c_bands before calling an iterative solver
           488 MiB given to the printing process from OS
             0 MiB allocation reported by mallinfo(arena+hblkhd)
           181 MiB available memory on the node where the printing process lives
------------------
     ethr =  2.55E-06,  avg # of iterations =  2.0

     negative rho (up, down):  2.181E-02 0.000E+00

     total cpu time spent up to now is       45.5 secs

     total energy              =      -2.31878337 Ry
     estimated scf accuracy    <       0.00000059 Ry

     iteration #  3     ecut=    30.00 Ry     beta= 0.70
     Davidson diagonalization with overlap

---- Real-time Memory Report at c_bands before calling an iterative solver
           488 MiB given to the printing process from OS
             0 MiB allocation reported by mallinfo(arena+hblkhd)
           162 MiB available memory on the node where the printing process lives
------------------
     ethr =  2.96E-08,  avg # of iterations =  2.0

     negative rho (up, down):  2.182E-02 0.000E+00

     total cpu time spent up to now is       46.6 secs

     total energy              =      -2.31877384 Ry
     estimated scf accuracy    <       0.00000003 Ry

     iteration #  4     ecut=    30.00 Ry     beta= 0.70
     Davidson diagonalization with overlap

---- Real-time Memory Report at c_bands before calling an iterative solver
           488 MiB given to the printing process from OS
             0 MiB allocation reported by mallinfo(arena+hblkhd)
           144 MiB available memory on the node where the printing process lives
------------------
     ethr =  1.27E-09,  avg # of iterations =  2.0

     negative rho (up, down):  2.182E-02 0.000E+00

     total cpu time spent up to now is       47.7 secs

     total energy              =      -2.31877340 Ry
     estimated scf accuracy    <          1.1E-10 Ry

     iteration #  5     ecut=    30.00 Ry     beta= 0.70
     Davidson diagonalization with overlap

---- Real-time Memory Report at c_bands before calling an iterative solver
           489 MiB given to the printing process from OS
             0 MiB allocation reported by mallinfo(arena+hblkhd)
           126 MiB available memory on the node where the printing process lives
------------------
     ethr =  5.62E-12,  avg # of iterations =  3.0

     negative rho (up, down):  2.182E-02 0.000E+00

     total cpu time spent up to now is       48.7 secs

     End of self-consistent calculation

          k =-0.5000-0.5000-0.5000 ( 74736 PWs)   bands (ev):

   -10.3292  -0.6369

     occupation numbers 
     1.0000   0.0000

     highest occupied, lowest unoccupied level (ev):   -10.3292   -0.6369

!    total energy              =      -2.31877335 Ry
     estimated scf accuracy    <          6.0E-12 Ry

     The total energy is the sum of the following terms:
     one-electron contribution =      -4.21315487 Ry
     hartree contribution      =       2.23631789 Ry
     xc contribution           =      -1.38217989 Ry
     ewald contribution        =       1.04024352 Ry

     convergence has been achieved in   5 iterations

     Forces acting on atoms (cartesian axes, Ry/au):

     atom    1 type  1   force =    -0.00592453    0.00000000    0.00000000
     atom    2 type  1   force =     0.00592453    0.00000000    0.00000000
     The non-local contrib.  to forces
     atom    1 type  1   force =     0.10657036    0.00000000    0.00000000
     atom    2 type  1   force =    -0.10663833    0.00000000    0.00000000
     The ionic contribution  to forces
     atom    1 type  1   force =    -1.00526240    0.00000000   -0.00000000
     atom    2 type  1   force =     1.00526240   -0.00000000   -0.00000000
     The local contribution  to forces
     atom    1 type  1   force =     0.89273281    0.00000000    0.00000000
     atom    2 type  1   force =    -0.89272414    0.00000000    0.00000000
     The core correction contribution to forces
     atom    1 type  1   force =     0.00000000    0.00000000    0.00000000
     atom    2 type  1   force =     0.00000000    0.00000000    0.00000000
     The Hubbard contrib.    to forces
     atom    1 type  1   force =     0.00000000    0.00000000    0.00000000
     atom    2 type  1   force =     0.00000000    0.00000000    0.00000000
     The SCF correction term to forces
     atom    1 type  1   force =    -0.00000200   -0.00000000    0.00000000
     atom    2 type  1   force =    -0.00001211    0.00000000    0.00000000

     Total force =     0.008379     Total SCF correction =     0.000012
     Energy error            =      2.3E-04 Ry
     Gradient error          =      5.9E-03 Ry/Bohr

     number of scf cycles    =  10
     number of bfgs steps    =   2

     energy             old  =      -2.3189990724 Ry
     energy             new  =      -2.3187733481 Ry

     CASE: energy            _new > energy            _old

     new trust radius        =       0.0037863782 bohr
     new conv_thr            =            1.0E-10 Ry


ATOMIC_POSITIONS (angstrom)
H             0.0021109366        0.0000000000        0.0000000000
H             0.7578890634        0.0000000000        0.0000000000



     Writing config-only to output data dir ./.save/
     NEW-OLD atomic charge density approx. for the potential

     negative rho (up, down):  2.168E-02 0.000E+00

     total cpu time spent up to now is       49.8 secs

     Self-consistent Calculation

     iteration #  1     ecut=    30.00 Ry     beta= 0.70
     Davidson diagonalization with overlap

---- Real-time Memory Report at c_bands before calling an iterative solver
           489 MiB given to the printing process from OS
             0 MiB allocation reported by mallinfo(arena+hblkhd)
           362 MiB available memory on the node where the printing process lives
------------------
     ethr =  1.00E-06,  avg # of iterations =  3.0

     negative rho (up, down):  2.146E-02 0.000E+00

     total cpu time spent up to now is       51.0 secs

     total energy              =      -2.31895634 Ry
     estimated scf accuracy    <       0.00002619 Ry

     iteration #  2     ecut=    30.00 Ry     beta= 0.70
     Davidson diagonalization with overlap

---- Real-time Memory Report at c_bands before calling an iterative solver
           489 MiB given to the printing process from OS
             0 MiB allocation reported by mallinfo(arena+hblkhd)
           181 MiB available memory on the node where the printing process lives
------------------
     ethr =  1.31E-06,  avg # of iterations =  1.0

     negative rho (up, down):  2.141E-02 0.000E+00

     total cpu time spent up to now is       52.0 secs

     total energy              =      -2.31898907 Ry
     estimated scf accuracy    <       0.00000029 Ry

     iteration #  3     ecut=    30.00 Ry     beta= 0.70
     Davidson diagonalization with overlap

---- Real-time Memory Report at c_bands before calling an iterative solver
           489 MiB given to the printing process from OS
             0 MiB allocation reported by mallinfo(arena+hblkhd)
           162 MiB available memory on the node where the printing process lives
------------------
     ethr =  1.46E-08,  avg # of iterations =  2.0

     negative rho (up, down):  2.140E-02 0.000E+00

     total cpu time spent up to now is       53.1 secs

     total energy              =      -2.31899272 Ry
     estimated scf accuracy    <       0.00000001 Ry

     iteration #  4     ecut=    30.00 Ry     beta= 0.70
     Davidson diagonalization with overlap

---- Real-time Memory Report at c_bands before calling an iterative solver
           489 MiB given to the printing process from OS
             0 MiB allocation reported by mallinfo(arena+hblkhd)
           144 MiB available memory on the node where the printing process lives
------------------
     ethr =  6.46E-10,  avg # of iterations =  2.0

     negative rho (up, down):  2.140E-02 0.000E+00

     total cpu time spent up to now is       54.0 secs

     End of self-consistent calculation

          k =-0.5000-0.5000-0.5000 ( 74736 PWs)   bands (ev):

   -10.2824  -0.6169

     occupation numbers 
     1.0000   0.0000

     highest occupied, lowest unoccupied level (ev):   -10.2824   -0.6169

!    total energy              =      -2.31899381 Ry
     estimated scf accuracy    <          2.3E-11 Ry

     The total energy is the sum of the following terms:
     one-electron contribution =      -4.18868929 Ry
     hartree contribution      =       2.22342939 Ry
     xc contribution           =      -1.37609577 Ry
     ewald contribution        =       1.02236186 Ry

     convergence has been achieved in   4 iterations

     Forces acting on atoms (cartesian axes, Ry/au):

     atom    1 type  1   force =     0.00743996    0.00000000    0.00000000
     atom    2 type  1   force =    -0.00743996    0.00000000    0.00000000
     The non-local contrib.  to forces
     atom    1 type  1   force =     0.10450092    0.00000000    0.00000000
     atom    2 type  1   force =    -0.10463921    0.00000000    0.00000000
     The ionic contribution  to forces
     atom    1 type  1   force =    -0.98004490   -0.00000000   -0.00000000
     atom    2 type  1   force =     0.98004490    0.00000000   -0.00000000
     The local contribution  to forces
     atom    1 type  1   force =     0.88291350    0.00000000    0.00000000
     atom    2 type  1   force =    -0.88291048    0.00000000    0.00000000
     The core correction contribution to forces
     atom    1 type  1   force =     0.00000000    0.00000000    0.00000000
     atom    2 type  1   force =     0.00000000    0.00000000    0.00000000
     The Hubbard contrib.    to forces
     atom    1 type  1   force =     0.00000000    0.00000000    0.00000000
     atom    2 type  1   force =     0.00000000    0.00000000    0.00000000
     The SCF correction term to forces
     atom    1 type  1   force =     0.00000954   -0.00000000    0.00000000
     atom    2 type  1   force =     0.00000393   -0.00000000   -0.00000000

     Total force =     0.010522     Total SCF correction =     0.000010
     Energy error            =      5.3E-06 Ry
     Gradient error          =      7.4E-03 Ry/Bohr

     number of scf cycles    =  11
     number of bfgs steps    =   2

     energy             old  =      -2.3189990724 Ry
     energy             new  =      -2.3189938123 Ry

     CASE: energy            _new > energy            _old

     new trust radius        =       0.0017956987 bohr
     new conv_thr            =            1.0E-10 Ry


ATOMIC_POSITIONS (angstrom)
H             0.0010575144        0.0000000000        0.0000000000
H             0.7589424856        0.0000000000        0.0000000000



     Writing config-only to output data dir ./.save/
     NEW-OLD atomic charge density approx. for the potential

     negative rho (up, down):  2.137E-02 0.000E+00

     total cpu time spent up to now is       55.1 secs

     Self-consistent Calculation

     iteration #  1     ecut=    30.00 Ry     beta= 0.70
     Davidson diagonalization with overlap

---- Real-time Memory Report at c_bands before calling an iterative solver
           489 MiB given to the printing process from OS
             0 MiB allocation reported by mallinfo(arena+hblkhd)
           362 MiB available memory on the node where the printing process lives
------------------
     ethr =  1.00E-06,  avg # of iterations =  2.0

     Threshold (ethr) on eigenvalues was too large:
     Diagonalizing with lowered threshold

     Davidson diagonalization with overlap

---- Real-time Memory Report at c_bands before calling an iterative solver
           489 MiB given to the printing process from OS
             0 MiB allocation reported by mallinfo(arena+hblkhd)
           328 MiB available memory on the node where the printing process lives
------------------
     ethr =  5.80E-08,  avg # of iterations =  1.0

     negative rho (up, down):  2.132E-02 0.000E+00

     total cpu time spent up to now is       56.6 secs

     total energy              =      -2.31899208 Ry
     estimated scf accuracy    <       0.00000123 Ry

     iteration #  2     ecut=    30.00 Ry     beta= 0.70
     Davidson diagonalization with overlap

---- Real-time Memory Report at c_bands before calling an iterative solver
           489 MiB given to the printing process from OS
             0 MiB allocation reported by mallinfo(arena+hblkhd)
           181 MiB available memory on the node where the printing process lives
------------------
     ethr =  6.13E-08,  avg # of iterations =  1.0

     negative rho (up, down):  2.131E-02 0.000E+00

     total cpu time spent up to now is       57.6 secs

     total energy              =      -2.31899623 Ry
     estimated scf accuracy    <       0.00000002 Ry

     iteration #  3     ecut=    30.00 Ry     beta= 0.70
     Davidson diagonalization with overlap

---- Real-time Memory Report at c_bands before calling an iterative solver
           489 MiB given to the printing process from OS
             0 MiB allocation reported by mallinfo(arena+hblkhd)
           162 MiB available memory on the node where the printing process lives
------------------
     ethr =  8.52E-10,  avg # of iterations =  2.0

     negative rho (up, down):  2.131E-02 0.000E+00

     total cpu time spent up to now is       58.7 secs

     total energy              =      -2.31899844 Ry
     estimated scf accuracy    <          9.4E-10 Ry

     iteration #  4     ecut=    30.00 Ry     beta= 0.70
     Davidson diagonalization with overlap

---- Real-time Memory Report at c_bands before calling an iterative solver
           489 MiB given to the printing process from OS
             0 MiB allocation reported by mallinfo(arena+hblkhd)
           144 MiB available memory on the node where the printing process lives
------------------
     ethr =  4.68E-11,  avg # of iterations =  2.0

     negative rho (up, down):  2.131E-02 0.000E+00

     total cpu time spent up to now is       59.6 secs

     End of self-consistent calculation

          k =-0.5000-0.5000-0.5000 ( 74736 PWs)   bands (ev):

   -10.2719  -0.6128

     occupation numbers 
     1.0000   0.0000

     highest occupied, lowest unoccupied level (ev):   -10.2719   -0.6128

!    total energy              =      -2.31899869 Ry
     estimated scf accuracy    <          6.2E-11 Ry

     The total energy is the sum of the following terms:
     one-electron contribution =      -4.18333213 Ry
     hartree contribution      =       2.22062305 Ry
     xc contribution           =      -1.37476041 Ry
     ewald contribution        =       1.01847080 Ry

     convergence has been achieved in   4 iterations

     Forces acting on atoms (cartesian axes, Ry/au):

     atom    1 type  1   force =     0.01028551    0.00000000    0.00000000
     atom    2 type  1   force =    -0.01028551    0.00000000    0.00000000
     The non-local contrib.  to forces
     atom    1 type  1   force =     0.10407389    0.00000000    0.00000000
     atom    2 type  1   force =    -0.10418090    0.00000000    0.00000000
     The ionic contribution  to forces
     atom    1 type  1   force =    -0.97459988   -0.00000000   -0.00000000
     atom    2 type  1   force =     0.97459988    0.00000000   -0.00000000
     The local contribution  to forces
     atom    1 type  1   force =     0.88076393    0.00000000    0.00000000
     atom    2 type  1   force =    -0.88075453    0.00000000    0.00000000
     The core correction contribution to forces
     atom    1 type  1   force =     0.00000000    0.00000000    0.00000000
     atom    2 type  1   force =     0.00000000    0.00000000    0.00000000
     The Hubbard contrib.    to forces
     atom    1 type  1   force =     0.00000000    0.00000000    0.00000000
     atom    2 type  1   force =     0.00000000    0.00000000    0.00000000
     The SCF correction term to forces
     atom    1 type  1   force =    -0.00000252   -0.00000000   -0.00000000
     atom    2 type  1   force =    -0.00000006    0.00000000    0.00000000

     Total force =     0.014546     Total SCF correction =     0.000003
     Energy error            =      3.8E-07 Ry
     Gradient error          =      1.0E-02 Ry/Bohr

     number of scf cycles    =  12
     number of bfgs steps    =   2

     energy             old  =      -2.3189990724 Ry
     energy             new  =      -2.3189986885 Ry

     CASE: energy            _new > energy            _old

     new trust radius        =       0.0008904102 bohr
     new conv_thr            =            1.0E-10 Ry


ATOMIC_POSITIONS (angstrom)
H             0.0005784563        0.0000000000        0.0000000000
H             0.7594215437        0.0000000000        0.0000000000



     Writing config-only to output data dir ./.save/
     NEW-OLD atomic charge density approx. for the potential

     negative rho (up, down):  2.130E-02 0.000E+00

     total cpu time spent up to now is       60.7 secs

     Self-consistent Calculation

     iteration #  1     ecut=    30.00 Ry     beta= 0.70
     Davidson diagonalization with overlap

---- Real-time Memory Report at c_bands before calling an iterative solver
           489 MiB given to the printing process from OS
             0 MiB allocation reported by mallinfo(arena+hblkhd)
           362 MiB available memory on the node where the printing process lives
------------------
     ethr =  1.00E-06,  avg # of iterations =  2.0

     Threshold (ethr) on eigenvalues was too large:
     Diagonalizing with lowered threshold

     Davidson diagonalization with overlap

---- Real-time Memory Report at c_bands before calling an iterative solver
           489 MiB given to the printing process from OS
             0 MiB allocation reported by mallinfo(arena+hblkhd)
           328 MiB available memory on the node where the printing process lives
------------------
     ethr =  1.19E-08,  avg # of iterations =  1.0

     negative rho (up, down):  2.128E-02 0.000E+00

     total cpu time spent up to now is       62.1 secs

     total energy              =      -2.31899557 Ry
     estimated scf accuracy    <       0.00000025 Ry

     iteration #  2     ecut=    30.00 Ry     beta= 0.70
     Davidson diagonalization with overlap

---- Real-time Memory Report at c_bands before calling an iterative solver
           489 MiB given to the printing process from OS
             0 MiB allocation reported by mallinfo(arena+hblkhd)
           180 MiB available memory on the node where the printing process lives
------------------
     ethr =  1.26E-08,  avg # of iterations =  2.0

     negative rho (up, down):  2.127E-02 0.000E+00

     total cpu time spent up to now is       63.2 secs

     total energy              =      -2.31899677 Ry
     estimated scf accuracy    <          3.0E-09 Ry

     iteration #  3     ecut=    30.00 Ry     beta= 0.70
     Davidson diagonalization with overlap

---- Real-time Memory Report at c_bands before calling an iterative solver
           489 MiB given to the printing process from OS
             0 MiB allocation reported by mallinfo(arena+hblkhd)
           162 MiB available memory on the node where the printing process lives
------------------
     ethr =  1.49E-10,  avg # of iterations =  2.0

     negative rho (up, down):  2.127E-02 0.000E+00

     total cpu time spent up to now is       64.2 secs

     total energy              =      -2.31899852 Ry
     estimated scf accuracy    <          1.1E-10 Ry

     iteration #  4     ecut=    30.00 Ry     beta= 0.70
     Davidson diagonalization with overlap

---- Real-time Memory Report at c_bands before calling an iterative solver
           489 MiB given to the printing process from OS
             0 MiB allocation reported by mallinfo(arena+hblkhd)
           144 MiB available memory on the node where the printing process lives
------------------
     ethr =  5.73E-12,  avg # of iterations =  3.0

     negative rho (up, down):  2.127E-02 0.000E+00

     total cpu time spent up to now is       65.3 secs

     End of self-consistent calculation

          k =-0.5000-0.5000-0.5000 ( 74736 PWs)   bands (ev):

   -10.2673  -0.6116

     occupation numbers 
     1.0000   0.0000

     highest occupied, lowest unoccupied level (ev):   -10.2673   -0.6116

!    total energy              =      -2.31899739 Ry
     estimated scf accuracy    <          1.7E-11 Ry

     The total energy is the sum of the following terms:
     one-electron contribution =      -4.18090571 Ry
     hartree contribution      =       2.21936000 Ry
     xc contribution           =      -1.37416013 Ry
     ewald contribution        =       1.01670844 Ry

     convergence has been achieved in   4 iterations

     Forces acting on atoms (cartesian axes, Ry/au):

     atom    1 type  1   force =     0.01155529    0.00000000    0.00000000
     atom    2 type  1   force =    -0.01155529    0.00000000    0.00000000
     The non-local contrib.  to forces
     atom    1 type  1   force =     0.10385155    0.00000000    0.00000000
[...]
------------------
     ethr =  5.79E-08,  avg # of iterations =  1.0

     negative rho (up, down):  2.132E-02 0.000E+00

     total cpu time spent up to now is      250.0 secs

     total energy              =      -2.31899168 Ry
     estimated scf accuracy    <       0.00000123 Ry

     iteration #  2     ecut=    30.00 Ry     beta= 0.70
     Davidson diagonalization with overlap

---- Real-time Memory Report at c_bands before calling an iterative solver
           489 MiB given to the printing process from OS
             0 MiB allocation reported by mallinfo(arena+hblkhd)
           178 MiB available memory on the node where the printing process lives
------------------
     ethr =  6.13E-08,  avg # of iterations =  1.0

     negative rho (up, down):  2.131E-02 0.000E+00

     total cpu time spent up to now is      251.1 secs

     total energy              =      -2.31899560 Ry
     estimated scf accuracy    <       0.00000002 Ry

     iteration #  3     ecut=    30.00 Ry     beta= 0.70
     Davidson diagonalization with overlap

---- Real-time Memory Report at c_bands before calling an iterative solver
           489 MiB given to the printing process from OS
             0 MiB allocation reported by mallinfo(arena+hblkhd)
           160 MiB available memory on the node where the printing process lives
------------------
     ethr =  8.10E-10,  avg # of iterations =  2.0

     negative rho (up, down):  2.131E-02 0.000E+00

     total cpu time spent up to now is      252.1 secs

     total energy              =      -2.31899798 Ry
     estimated scf accuracy    <          7.8E-10 Ry

     iteration #  4     ecut=    30.00 Ry     beta= 0.70
     Davidson diagonalization with overlap

---- Real-time Memory Report at c_bands before calling an iterative solver
           489 MiB given to the printing process from OS
             0 MiB allocation reported by mallinfo(arena+hblkhd)
           141 MiB available memory on the node where the printing process lives
------------------
     ethr =  3.92E-11,  avg # of iterations =  2.0

     negative rho (up, down):  2.131E-02 0.000E+00

     total cpu time spent up to now is      253.2 secs

     End of self-consistent calculation

          k =-0.5000-0.5000-0.5000 ( 74736 PWs)   bands (ev):

   -10.2719  -0.6205

     occupation numbers 
     1.0000   0.0000

     highest occupied, lowest unoccupied level (ev):   -10.2719   -0.6205

!    total energy              =      -2.31899818 Ry
     estimated scf accuracy    <          1.9E-11 Ry

     The total energy is the sum of the following terms:
     one-electron contribution =      -4.18333196 Ry
     hartree contribution      =       2.22062730 Ry
     xc contribution           =      -1.37476183 Ry
     ewald contribution        =       1.01846831 Ry

     convergence has been achieved in   4 iterations

     Forces acting on atoms (cartesian axes, Ry/au):

     atom    1 type  1   force =     0.01028688    0.00000000    0.00000000
     atom    2 type  1   force =    -0.01028688    0.00000000    0.00000000
     The non-local contrib.  to forces
     atom    1 type  1   force =     0.10407730    0.00000000    0.00000000
     atom    2 type  1   force =    -0.10417356    0.00000000    0.00000000
     The ionic contribution  to forces
     atom    1 type  1   force =    -0.97459641   -0.00000000   -0.00000000
     atom    2 type  1   force =     0.97459641   -0.00000000   -0.00000000
     The local contribution  to forces
     atom    1 type  1   force =     0.88076492    0.00000000    0.00000000
     atom    2 type  1   force =    -0.88075596    0.00000000    0.00000000
     The core correction contribution to forces
     atom    1 type  1   force =     0.00000000    0.00000000    0.00000000
     atom    2 type  1   force =     0.00000000    0.00000000    0.00000000
     The Hubbard contrib.    to forces
     atom    1 type  1   force =     0.00000000    0.00000000    0.00000000
     atom    2 type  1   force =     0.00000000    0.00000000    0.00000000
     The SCF correction term to forces
     atom    1 type  1   force =    -0.00000380    0.00000000   -0.00000000
     atom    2 type  1   force =     0.00000137    0.00000000    0.00000000

     Total force =     0.014548     Total SCF correction =     0.000004
     Energy error            =      8.9E-07 Ry
     Gradient error          =      1.0E-02 Ry/Bohr

     number of scf cycles    =  48
     number of bfgs steps    =   2

     energy             old  =      -2.3189990724 Ry
     energy             new  =      -2.3189981804 Ry

     CASE: energy            _new > energy            _old

     new trust radius        =       0.0008801144 bohr
     new conv_thr            =            1.0E-10 Ry


ATOMIC_POSITIONS (angstrom)
H             0.0005730080        0.0000000000        0.0000000000
H             0.7594269920        0.0000000000        0.0000000000



     Writing config-only to output data dir ./.save/
     NEW-OLD atomic charge density approx. for the potential

     negative rho (up, down):  2.130E-02 0.000E+00

     total cpu time spent up to now is      254.3 secs

     Self-consistent Calculation

     iteration #  1     ecut=    30.00 Ry     beta= 0.70
     Davidson diagonalization with overlap

---- Real-time Memory Report at c_bands before calling an iterative solver
           489 MiB given to the printing process from OS
             0 MiB allocation reported by mallinfo(arena+hblkhd)
           359 MiB available memory on the node where the printing process lives
------------------
     ethr =  1.00E-06,  avg # of iterations =  2.0

     Threshold (ethr) on eigenvalues was too large:
     Diagonalizing with lowered threshold

     Davidson diagonalization with overlap

---- Real-time Memory Report at c_bands before calling an iterative solver
           489 MiB given to the printing process from OS
             0 MiB allocation reported by mallinfo(arena+hblkhd)
           326 MiB available memory on the node where the printing process lives
------------------
     c_bands:  1 eigenvalues not converged
     ethr =  1.23E-08,  avg # of iterations = 20.0

     negative rho (up, down):  2.128E-02 0.000E+00

     total cpu time spent up to now is      256.6 secs

     total energy              =      -2.31899579 Ry
     estimated scf accuracy    <       0.00000026 Ry

     iteration #  2     ecut=    30.00 Ry     beta= 0.70
     Davidson diagonalization with overlap

---- Real-time Memory Report at c_bands before calling an iterative solver
           489 MiB given to the printing process from OS
             0 MiB allocation reported by mallinfo(arena+hblkhd)
           178 MiB available memory on the node where the printing process lives
------------------
     ethr =  1.31E-08,  avg # of iterations =  7.0

     negative rho (up, down):  2.127E-02 0.000E+00

     total cpu time spent up to now is      257.9 secs

     total energy              =      -2.31899676 Ry
     estimated scf accuracy    <          2.7E-09 Ry

     iteration #  3     ecut=    30.00 Ry     beta= 0.70
     Davidson diagonalization with overlap

---- Real-time Memory Report at c_bands before calling an iterative solver
           489 MiB given to the printing process from OS
             0 MiB allocation reported by mallinfo(arena+hblkhd)
           160 MiB available memory on the node where the printing process lives
------------------
     ethr =  1.36E-10,  avg # of iterations =  2.0

     negative rho (up, down):  2.127E-02 0.000E+00

     total cpu time spent up to now is      259.0 secs

     total energy              =      -2.31899870 Ry
     estimated scf accuracy    <          1.2E-10 Ry

     iteration #  4     ecut=    30.00 Ry     beta= 0.70
     Davidson diagonalization with overlap

---- Real-time Memory Report at c_bands before calling an iterative solver
           489 MiB given to the printing process from OS
             0 MiB allocation reported by mallinfo(arena+hblkhd)
           142 MiB available memory on the node where the printing process lives
------------------
     ethr =  6.22E-12,  avg # of iterations =  3.0

     negative rho (up, down):  2.127E-02 0.000E+00

     total cpu time spent up to now is      260.1 secs

     End of self-consistent calculation

          k =-0.5000-0.5000-0.5000 ( 74736 PWs)   bands (ev):

   -10.2673  -0.6763

     occupation numbers 
     1.0000   0.0000

     highest occupied, lowest unoccupied level (ev):   -10.2673   -0.6763

!    total energy              =      -2.31899778 Ry
     estimated scf accuracy    <          2.7E-11 Ry

     The total energy is the sum of the following terms:
     one-electron contribution =      -4.18087844 Ry
     hartree contribution      =       2.21934628 Ry
     xc contribution           =      -1.37415404 Ry
     ewald contribution        =       1.01668842 Ry

     convergence has been achieved in   4 iterations

     Forces acting on atoms (cartesian axes, Ry/au):

     atom    1 type  1   force =     0.01156338    0.00000000    0.00000000
     atom    2 type  1   force =    -0.01156338    0.00000000    0.00000000
     The non-local contrib.  to forces
     atom    1 type  1   force =     0.10384412    0.00000000    0.00000000
     atom    2 type  1   force =    -0.10395327    0.00000000    0.00000000
     The ionic contribution  to forces
     atom    1 type  1   force =    -0.97211073    0.00000000   -0.00000000
     atom    2 type  1   force =     0.97211073   -0.00000000   -0.00000000
     The local contribution  to forces
     atom    1 type  1   force =     0.87977875    0.00000000    0.00000000
     atom    2 type  1   force =    -0.87977359    0.00000000    0.00000000
     The core correction contribution to forces
     atom    1 type  1   force =     0.00000000    0.00000000    0.00000000
     atom    2 type  1   force =     0.00000000    0.00000000    0.00000000
     The Hubbard contrib.    to forces
     atom    1 type  1   force =     0.00000000    0.00000000    0.00000000
     atom    2 type  1   force =     0.00000000    0.00000000    0.00000000
     The SCF correction term to forces
     atom    1 type  1   force =     0.00000014    0.00000000   -0.00000000
     atom    2 type  1   force =     0.00000166    0.00000000   -0.00000000

     Total force =     0.016353     Total SCF correction =     0.000002
     Energy error            =      1.3E-06 Ry
     Gradient error          =      1.2E-02 Ry/Bohr

     number of scf cycles    =  49
     number of bfgs steps    =   2

     energy             old  =      -2.3189990724 Ry
     energy             new  =      -2.3189977846 Ry

     CASE: energy            _new > energy            _old

     new trust radius        =       0.0004162552 bohr
     new conv_thr            =            1.0E-10 Ry


ATOMIC_POSITIONS (angstrom)
H             0.0003275442        0.0000000000        0.0000000000
H             0.7596724558        0.0000000000        0.0000000000



     Writing config-only to output data dir ./.save/
     NEW-OLD atomic charge density approx. for the potential

     negative rho (up, down):  2.126E-02 0.000E+00

     total cpu time spent up to now is      261.2 secs

     Self-consistent Calculation

     iteration #  1     ecut=    30.00 Ry     beta= 0.70
     Davidson diagonalization with overlap

---- Real-time Memory Report at c_bands before calling an iterative solver
           489 MiB given to the printing process from OS
             0 MiB allocation reported by mallinfo(arena+hblkhd)
           359 MiB available memory on the node where the printing process lives
------------------
     ethr =  1.00E-06,  avg # of iterations =  2.0

     Threshold (ethr) on eigenvalues was too large:
     Diagonalizing with lowered threshold

     Davidson diagonalization with overlap

---- Real-time Memory Report at c_bands before calling an iterative solver
           489 MiB given to the printing process from OS
             0 MiB allocation reported by mallinfo(arena+hblkhd)
           326 MiB available memory on the node where the printing process lives
------------------
     ethr =  3.23E-09,  avg # of iterations =  1.0

     negative rho (up, down):  2.125E-02 0.000E+00

     total cpu time spent up to now is      262.7 secs

     total energy              =      -2.31899524 Ry
     estimated scf accuracy    <       0.00000007 Ry

     iteration #  2     ecut=    30.00 Ry     beta= 0.70
     Davidson diagonalization with overlap

---- Real-time Memory Report at c_bands before calling an iterative solver
           489 MiB given to the printing process from OS
             0 MiB allocation reported by mallinfo(arena+hblkhd)
           178 MiB available memory on the node where the printing process lives
------------------
     ethr =  3.41E-09,  avg # of iterations =  2.0

     negative rho (up, down):  2.125E-02 0.000E+00

     total cpu time spent up to now is      263.7 secs

     total energy              =      -2.31899703 Ry
     estimated scf accuracy    <          8.2E-10 Ry

     iteration #  3     ecut=    30.00 Ry     beta= 0.70
     Davidson diagonalization with overlap

---- Real-time Memory Report at c_bands before calling an iterative solver
           489 MiB given to the printing process from OS
             0 MiB allocation reported by mallinfo(arena+hblkhd)
           160 MiB available memory on the node where the printing process lives
------------------
     ethr =  4.08E-11,  avg # of iterations =  2.0

     negative rho (up, down):  2.125E-02 0.000E+00

     total cpu time spent up to now is      264.7 secs

     End of self-consistent calculation

          k =-0.5000-0.5000-0.5000 ( 74736 PWs)   bands (ev):

   -10.2648  -0.6751

     occupation numbers 
     1.0000   0.0000

     highest occupied, lowest unoccupied level (ev):   -10.2648   -0.6751

!    total energy              =      -2.31899799 Ry
     estimated scf accuracy    <          4.2E-11 Ry

     The total energy is the sum of the following terms:
     one-electron contribution =      -4.17963299 Ry
     hartree contribution      =       2.21869303 Ry
     xc contribution           =      -1.37384518 Ry
     ewald contribution        =       1.01578716 Ry

     convergence has been achieved in   3 iterations

     Forces acting on atoms (cartesian axes, Ry/au):

     atom    1 type  1   force =     0.01221968    0.00000000    0.00000000
     atom    2 type  1   force =    -0.01221968    0.00000000    0.00000000
     The non-local contrib.  to forces
     atom    1 type  1   force =     0.10373776    0.00000000    0.00000000
     atom    2 type  1   force =    -0.10385666    0.00000000    0.00000000
     The ionic contribution  to forces
     atom    1 type  1   force =    -0.97085330    0.00000000   -0.00000000
     atom    2 type  1   force =     0.97085330   -0.00000000   -0.00000000
     The local contribution  to forces
     atom    1 type  1   force =     0.87927732    0.00000000    0.00000000
     atom    2 type  1   force =    -0.87927221    0.00000000    0.00000000
     The core correction contribution to forces
     atom    1 type  1   force =     0.00000000    0.00000000    0.00000000
     atom    2 type  1   force =     0.00000000    0.00000000    0.00000000
     The Hubbard contrib.    to forces
     atom    1 type  1   force =     0.00000000    0.00000000    0.00000000
     atom    2 type  1   force =     0.00000000    0.00000000    0.00000000
     The SCF correction term to forces
     atom    1 type  1   force =    -0.00000624    0.00000000   -0.00000000
     atom    2 type  1   force =    -0.00000824   -0.00000000   -0.00000000

     Total force =     0.017281     Total SCF correction =     0.000010
     Energy error            =      1.1E-06 Ry
     Gradient error          =      1.2E-02 Ry/Bohr

     number of scf cycles    =  50
     number of bfgs steps    =   2

     energy             old  =      -2.3189990724 Ry
     energy             new  =      -2.3189979894 Ry

     CASE: energy            _new > energy            _old

     new trust radius        =       0.0001889197 bohr

     The maximum number of steps has been reached.

     End of BFGS Geometry Optimization

ATOMIC_POSITIONS (angstrom)
H             0.0002072435        0.0000000000        0.0000000000
H             0.7597927565        0.0000000000        0.0000000000



     Writing config-only to output data dir ./.save/
     NEW-OLD atomic charge density approx. for the potential

     negative rho (up, down):  2.125E-02 0.000E+00

     Writing all to output data dir ./.save/

     init_run     :      0.99s CPU      1.04s WALL (       1 calls)
     electrons    :    210.97s CPU    212.71s WALL (      50 calls)
     update_pot   :     33.14s CPU     33.86s WALL (      50 calls)
     forces       :     13.11s CPU     13.31s WALL (      50 calls)

     Called by init_run:
     wfcinit      :      0.10s CPU      0.10s WALL (       1 calls)
     wfcinit:atom :      0.00s CPU      0.00s WALL (       1 calls)
     wfcinit:wfcr :      0.09s CPU      0.09s WALL (       1 calls)
     potinit      :      0.57s CPU      0.59s WALL (       1 calls)
     hinit0       :      0.06s CPU      0.06s WALL (       1 calls)

     Called by electrons:
     c_bands      :     53.76s CPU     53.80s WALL (     217 calls)
     sum_band     :     32.63s CPU     32.82s WALL (     217 calls)
     v_of_rho     :    129.14s CPU    130.14s WALL (     235 calls)
     v_h          :      8.91s CPU      8.92s WALL (     235 calls)
     v_xc         :    120.22s CPU    121.21s WALL (     235 calls)
     newd         :     10.84s CPU     10.85s WALL (     235 calls)
     mix_rho      :      9.93s CPU     10.51s WALL (     217 calls)

     Called by c_bands:
     init_us_2    :      0.88s CPU      0.89s WALL (     435 calls)
     init_us_2:cp :      0.88s CPU      0.89s WALL (     435 calls)
     cegterg      :     53.17s CPU     53.21s WALL (     217 calls)

     Called by sum_band:
     sum_band:wei :      0.00s CPU      0.00s WALL (     217 calls)
     sum_band:loo :     10.24s CPU     10.25s WALL (     217 calls)
     sum_band:buf :      0.00s CPU      0.00s WALL (     217 calls)
     sum_band:ini :      0.45s CPU      0.46s WALL (     217 calls)
     sum_band:cal :      0.11s CPU      0.11s WALL (     217 calls)
     sum_band:bec :      0.00s CPU      0.00s WALL (     217 calls)
     addusdens    :      2.67s CPU      2.82s WALL (     217 calls)
     addusd:skk   :      0.76s CPU      0.83s WALL (     217 calls)
     addusd:dgemm :      0.59s CPU      0.62s WALL (     217 calls)
     addusd:qvan2 :      0.71s CPU      0.73s WALL (     217 calls)

     Called by *egterg:
     cdiaghg      :      0.01s CPU      0.01s WALL (     594 calls)
     cegterg:over :      0.58s CPU      0.58s WALL (     459 calls)
     cegterg:upda :      0.41s CPU      0.42s WALL (     459 calls)
     cegterg:last :      0.80s CPU      0.80s WALL (     423 calls)
     h_psi        :     50.43s CPU     50.46s WALL (     677 calls)
     s_psi        :      0.25s CPU      0.25s WALL (     677 calls)
     g_psi        :      0.18s CPU      0.18s WALL (     459 calls)

     Called by h_psi:
     h_psi:calbec :      0.33s CPU      0.33s WALL (     677 calls)
     vloc_psi     :     49.69s CPU     49.72s WALL (     677 calls)
     add_vuspsi   :      0.26s CPU      0.26s WALL (     677 calls)

     General routines
     calbec       :      0.54s CPU      0.54s WALL (    1094 calls)
     fft          :     82.12s CPU     82.17s WALL (    2768 calls)
     ffts         :      6.64s CPU      6.64s WALL (     217 calls)
     fftw         :     53.34s CPU     53.37s WALL (    2724 calls)


     PWSCF        :   4m23.13s CPU   4m25.86s WALL


   This run was terminated on:   4:16: 8  28Feb2022            

=------------------------------------------------------------------------------=
   JOB DONE.
=------------------------------------------------------------------------------=
