
     Program PWSCF v.7.0 starts on 28Feb2022 at  4:16:57 

     This program is part of the open-source Quantum ESPRESSO suite
     for quantum simulation of materials; please cite
         "P. Giannozzi et al., J. Phys.:Condens. Matter 21 395502 (2009);
         "P. Giannozzi et al., J. Phys.:Condens. Matter 29 465901 (2017);
         "P. Giannozzi et al., J. Chem. Phys. 152 154105 (2020);
          URL http://www.quantum-espresso.org", 
     in publications or presentations arising from this work. More details at
     http://www.quantum-espresso.org/quote

     Serial version
     621 MiB available memory on the printing compute node when the environment starts

     Waiting for input...
     Reading input from standard input

     Current dimensions of program PWSCF are:
     Max number of different atomic species (ntypx) = 10
     Max number of k-points (npk) =  40000
     Max angular momentum in pseudopotentials (lmaxx) =  4

    ============================================================
    |  pseudopotential report for atomic species:  1           |
    |        pseudo potential version   7   3   2              |
    ------------------------------------------------------------
    |  hydrogen            PBE                  exchange-corr  |
    |  z =   1.    zv( 1) =   1.    exfact =   5.00000         |
    |  ifpcor =  0           atomic energy =  -0.91772 Ry      |
    |  index    orbital      occupation    energy              |
    |    1        100           1.00       -0.48               |
    |  rinner =  0.5000                                        |
    |    new generation scheme:                                |
    |    nbeta =  1     kkbeta =  271     rcloc =    0.6000    |
    |    ibeta    l     epsilon   rcut                         |
    |      1       0      -0.48   0.80                         |
    ============================================================

     IMPORTANT: XC functional enforced from input :
     Exchange-correlation= BLYP
                           (   1   3   1   3   0   0   0)
     Any further DFT definition will be discarded
     Please, verify this is what you really want


     G-vector sticks info
     --------------------
     sticks:   dense  smooth     PW     G-vecs:    dense   smooth      PW
     Sum        8585    8585   2289               599161   599161   82519

     Using Slab Decomposition



     bravais-lattice index     =            1
     lattice parameter (alat)  =      30.0000  a.u.
     unit-cell volume          =   27000.0000 (a.u.)^3
     number of atoms/cell      =            2
     number of atomic types    =            1
     number of electrons       =         2.00
     number of Kohn-Sham states=            2
     kinetic-energy cutoff     =      30.0000  Ry
     charge density cutoff     =     120.0000  Ry
     scf convergence threshold =      1.0E-08
     mixing beta               =       0.7000
     number of iterations used =            8  plain     mixing
     energy convergence thresh.=      1.0E-04
     force convergence thresh. =      1.0E-03
     Exchange-correlation= BLYP
                           (   1   3   1   3   0   0   0)
     nstep                     =           50


     celldm(1)=  30.000000  celldm(2)=   0.000000  celldm(3)=   0.000000
     celldm(4)=   0.000000  celldm(5)=   0.000000  celldm(6)=   0.000000

     crystal axes: (cart. coord. in units of alat)
               a(1) = (   1.000000   0.000000   0.000000 )  
               a(2) = (   0.000000   1.000000   0.000000 )  
               a(3) = (   0.000000   0.000000   1.000000 )  

     reciprocal axes: (cart. coord. in units 2 pi/alat)
               b(1) = (  1.000000  0.000000  0.000000 )  
               b(2) = (  0.000000  1.000000  0.000000 )  
               b(3) = (  0.000000  0.000000  1.000000 )  


     PseudoPot. # 1 for hy read from file:
     /root/q-e/pseudo/H_US.van
     MD5 check sum: a9a9bfe98ff56cf4de197d71fc46bb44
     Pseudo is Ultrasoft, Zval =  1.0
     Generated by Vanderbilt code, v. 7.3.2
     Using radial grid of  399 points,  1 beta functions with: 
                l(1) =   0
     Q(r) pseudized with  8 coefficients,  rinner =    0.500

     atomic species   valence    mass     pseudopotential
        H              1.00     1.00784     hy( 1.00)

      8 Sym. Ops. (no inversion) found


                                    s                        frac. trans.

      isym =  1     identity                                     

 cryst.   s( 1) = (     1          0          0      )
                  (     0          1          0      )
                  (     0          0          1      )

 cart.    s( 1) = (  1.0000000  0.0000000  0.0000000 )
                  (  0.0000000  1.0000000  0.0000000 )
                  (  0.0000000  0.0000000  1.0000000 )


      isym =  2     180 deg rotation - cart. axis [1,0,0]        

 cryst.   s( 2) = (     1          0          0      )
                  (     0         -1          0      )
                  (     0          0         -1      )

 cart.    s( 2) = (  1.0000000  0.0000000  0.0000000 )
                  (  0.0000000 -1.0000000  0.0000000 )
                  (  0.0000000  0.0000000 -1.0000000 )


      isym =  3      90 deg rotation - cart. axis [-1,0,0]       

 cryst.   s( 3) = (     1          0          0      )
                  (     0          0         -1      )
                  (     0          1          0      )

 cart.    s( 3) = (  1.0000000  0.0000000  0.0000000 )
                  (  0.0000000  0.0000000  1.0000000 )
                  (  0.0000000 -1.0000000  0.0000000 )


      isym =  4      90 deg rotation - cart. axis [1,0,0]        

 cryst.   s( 4) = (     1          0          0      )
                  (     0          0          1      )
                  (     0         -1          0      )

 cart.    s( 4) = (  1.0000000  0.0000000  0.0000000 )
                  (  0.0000000  0.0000000 -1.0000000 )
                  (  0.0000000  1.0000000  0.0000000 )


      isym =  5     inv. 180 deg rotation - cart. axis [0,0,1]   

 cryst.   s( 5) = (     1          0          0      )
                  (     0          1          0      )
                  (     0          0         -1      )

 cart.    s( 5) = (  1.0000000  0.0000000  0.0000000 )
                  (  0.0000000  1.0000000  0.0000000 )
                  (  0.0000000  0.0000000 -1.0000000 )


      isym =  6     inv. 180 deg rotation - cart. axis [0,1,0]   

 cryst.   s( 6) = (     1          0          0      )
                  (     0         -1          0      )
                  (     0          0          1      )

 cart.    s( 6) = (  1.0000000  0.0000000  0.0000000 )
                  (  0.0000000 -1.0000000  0.0000000 )
                  (  0.0000000  0.0000000  1.0000000 )


      isym =  7     inv. 180 deg rotation - cart. axis [0,1,1]   

 cryst.   s( 7) = (     1          0          0      )
                  (     0          0         -1      )
                  (     0         -1          0      )

 cart.    s( 7) = (  1.0000000  0.0000000  0.0000000 )
                  (  0.0000000  0.0000000 -1.0000000 )
                  (  0.0000000 -1.0000000  0.0000000 )


      isym =  8     inv. 180 deg rotation - cart. axis [0,1,-1]  

 cryst.   s( 8) = (     1          0          0      )
                  (     0          0          1      )
                  (     0          1          0      )

 cart.    s( 8) = (  1.0000000  0.0000000  0.0000000 )
                  (  0.0000000  0.0000000  1.0000000 )
                  (  0.0000000  1.0000000  0.0000000 )


     point group C_4v (4mm) 
     there are  5 classes
     the character table:

       E     2C4   C2    2s_v  2s_d 
A_1    1.00  1.00  1.00  1.00  1.00
A_2    1.00  1.00  1.00 -1.00 -1.00
B_1    1.00 -1.00  1.00  1.00 -1.00
B_2    1.00 -1.00  1.00 -1.00  1.00
E      2.00  0.00 -2.00  0.00  0.00

     the symmetry operations in each class and the name of the first element:

     E        1
          identity                                               
     2C4      3    4
           90 deg rotation - cart. axis [-1,0,0]                 
     C2       2
          180 deg rotation - cart. axis [1,0,0]                  
     2s_v     5    6
          inv. 180 deg rotation - cart. axis [0,0,1]             
     2s_d     7    8
          inv. 180 deg rotation - cart. axis [0,1,1]             

   Cartesian axes

     site n.     atom                  positions (alat units)
         1           H   tau(   1) = (   0.0000000   0.0000000   0.0000000  )
         2           H   tau(   2) = (   0.0516525   0.0000000   0.0000000  )

   Crystallographic axes

     site n.     atom                  positions (cryst. coord.)
         1           H   tau(   1) = (  0.0000000  0.0000000  0.0000000  )
         2           H   tau(   2) = (  0.0516525  0.0000000  0.0000000  )

     number of k points=     1
                       cart. coord. in units 2pi/alat
        k(    1) = (  -0.5000000  -0.5000000  -0.5000000), wk =   2.0000000

                       cryst. coord.
        k(    1) = (  -0.5000000  -0.5000000  -0.5000000), wk =   2.0000000

     Dense  grid:   599161 G-vectors     FFT dimensions: ( 108, 108, 108)

     Dynamical RAM for                 wfc:       2.29 MB

     Dynamical RAM for     wfc (w. buffer):       2.29 MB

     Dynamical RAM for           str. fact:       9.14 MB

     Dynamical RAM for           local pot:       0.00 MB

     Dynamical RAM for          nlocal pot:       2.29 MB

     Dynamical RAM for                qrad:       0.01 MB

     Dynamical RAM for          rho,v,vnew:      56.26 MB

     Dynamical RAM for               rhoin:      18.75 MB

     Dynamical RAM for            rho*nmix:     146.28 MB

     Dynamical RAM for           G-vectors:      38.86 MB

     Dynamical RAM for          h,s,v(r/c):       0.00 MB

     Dynamical RAM for          <psi|beta>:       0.00 MB

     Dynamical RAM for                 psi:       4.57 MB

     Dynamical RAM for                hpsi:       4.57 MB

     Dynamical RAM for                spsi:       4.57 MB

     Dynamical RAM for      wfcinit/wfcrot:       4.57 MB

     Dynamical RAM for           addusdens:      54.85 MB

     Dynamical RAM for          addusforce:      77.71 MB

     Estimated static dynamical RAM per process >     193.93 MB

     Estimated max dynamical RAM per process >     417.92 MB

     Initial potential from superposition of free atoms

     starting charge       2.0000, renormalised to       2.0000

     negative rho (up, down):  1.471E-02 0.000E+00
     Starting wfcs are    2 randomized atomic wfcs

     total cpu time spent up to now is        1.1 secs

     Self-consistent Calculation

     iteration #  1     ecut=    30.00 Ry     beta= 0.70
     Davidson diagonalization with overlap

---- Real-time Memory Report at c_bands before calling an iterative solver
           334 MiB given to the printing process from OS
             0 MiB allocation reported by mallinfo(arena+hblkhd)
           392 MiB available memory on the node where the printing process lives
------------------
     ethr =  1.00E-02,  avg # of iterations =  3.0

     negative rho (up, down):  1.851E-02 0.000E+00

     total cpu time spent up to now is        2.3 secs

     total energy              =      -2.30832190 Ry
     estimated scf accuracy    <       0.09199347 Ry

     iteration #  2     ecut=    30.00 Ry     beta= 0.70
     Davidson diagonalization with overlap

---- Real-time Memory Report at c_bands before calling an iterative solver
           425 MiB given to the printing process from OS
             0 MiB allocation reported by mallinfo(arena+hblkhd)
           208 MiB available memory on the node where the printing process lives
------------------
     ethr =  4.60E-03,  avg # of iterations =  1.0

     negative rho (up, down):  1.923E-02 0.000E+00

     total cpu time spent up to now is        3.3 secs

     total energy              =      -2.31439276 Ry
     estimated scf accuracy    <       0.00098194 Ry

     iteration #  3     ecut=    30.00 Ry     beta= 0.70
     Davidson diagonalization with overlap

---- Real-time Memory Report at c_bands before calling an iterative solver
           444 MiB given to the printing process from OS
             0 MiB allocation reported by mallinfo(arena+hblkhd)
           189 MiB available memory on the node where the printing process lives
------------------
     ethr =  4.91E-05,  avg # of iterations = 11.0

     negative rho (up, down):  1.906E-02 0.000E+00

     total cpu time spent up to now is        4.8 secs

     total energy              =      -2.31480131 Ry
     estimated scf accuracy    <       0.00001379 Ry

     iteration #  4     ecut=    30.00 Ry     beta= 0.70
     Davidson diagonalization with overlap

---- Real-time Memory Report at c_bands before calling an iterative solver
           462 MiB given to the printing process from OS
             0 MiB allocation reported by mallinfo(arena+hblkhd)
           171 MiB available memory on the node where the printing process lives
------------------
     ethr =  6.90E-07,  avg # of iterations =  5.0

     negative rho (up, down):  1.905E-02 0.000E+00

     total cpu time spent up to now is        6.0 secs

     total energy              =      -2.31481208 Ry
     estimated scf accuracy    <       0.00000036 Ry

     iteration #  5     ecut=    30.00 Ry     beta= 0.70
     Davidson diagonalization with overlap

---- Real-time Memory Report at c_bands before calling an iterative solver
           480 MiB given to the printing process from OS
             0 MiB allocation reported by mallinfo(arena+hblkhd)
           153 MiB available memory on the node where the printing process lives
------------------
     ethr =  1.78E-08,  avg # of iterations =  2.0

     negative rho (up, down):  1.905E-02 0.000E+00

     total cpu time spent up to now is        7.1 secs

     total energy              =      -2.31481138 Ry
     estimated scf accuracy    <       0.00000003 Ry

     iteration #  6     ecut=    30.00 Ry     beta= 0.70
     Davidson diagonalization with overlap

---- Real-time Memory Report at c_bands before calling an iterative solver
           499 MiB given to the printing process from OS
             0 MiB allocation reported by mallinfo(arena+hblkhd)
           135 MiB available memory on the node where the printing process lives
------------------
     ethr =  1.29E-09,  avg # of iterations =  2.0

     negative rho (up, down):  1.905E-02 0.000E+00

     total cpu time spent up to now is        8.0 secs

     End of self-consistent calculation

          k =-0.5000-0.5000-0.5000 ( 74736 PWs)   bands (ev):

    -9.9805  -0.5357

     occupation numbers 
     1.0000   0.0000

     highest occupied, lowest unoccupied level (ev):    -9.9805   -0.5357

!    total energy              =      -2.31481351 Ry
     estimated scf accuracy    <          9.4E-11 Ry

     The total energy is the sum of the following terms:
     one-electron contribution =      -4.03123565 Ry
     hartree contribution      =       2.14092923 Ry
     xc contribution           =      -1.33725086 Ry
     ewald contribution        =       0.91274377 Ry

     convergence has been achieved in   6 iterations

     Forces acting on atoms (cartesian axes, Ry/au):

     atom    1 type  1   force =     0.07397232    0.00000000    0.00000000
     atom    2 type  1   force =    -0.07397232    0.00000000    0.00000000
     The non-local contrib.  to forces
     atom    1 type  1   force =     0.08731905    0.00000000    0.00000000
     atom    2 type  1   force =    -0.08689692    0.00000000    0.00000000
     The ionic contribution  to forces
     atom    1 type  1   force =    -0.83243781   -0.00000000   -0.00000000
     atom    2 type  1   force =     0.83243781    0.00000000   -0.00000000
     The local contribution  to forces
     atom    1 type  1   force =     0.81929232    0.00000000    0.00000000
     atom    2 type  1   force =    -0.81931844    0.00000000    0.00000000
     The core correction contribution to forces
     atom    1 type  1   force =     0.00000000    0.00000000    0.00000000
     atom    2 type  1   force =     0.00000000    0.00000000    0.00000000
     The Hubbard contrib.    to forces
     atom    1 type  1   force =     0.00000000    0.00000000    0.00000000
     atom    2 type  1   force =     0.00000000    0.00000000    0.00000000
     The SCF correction term to forces
     atom    1 type  1   force =    -0.00000063   -0.00000000    0.00000000
     atom    2 type  1   force =     0.00000583    0.00000000   -0.00000000

     Total force =     0.104613     Total SCF correction =     0.000006

     BFGS Geometry Optimization
     Energy error            =      0.0E+00 Ry
     Gradient error          =      7.4E-02 Ry/Bohr

     number of scf cycles    =   1
     number of bfgs steps    =   0

     energy             new  =      -2.3148135148 Ry

     new trust radius        =       0.0739723193 bohr
     new conv_thr            =       0.0000000100 Ry


ATOMIC_POSITIONS (angstrom)
H             0.0391444656        0.0000000000        0.0000000000
H             0.7808555344        0.0000000000        0.0000000000



     Writing config-only to output data dir ./.save/
     NEW-OLD atomic charge density approx. for the potential

     negative rho (up, down):  1.964E-02 0.000E+00

     total cpu time spent up to now is        9.1 secs

     Self-consistent Calculation

     iteration #  1     ecut=    30.00 Ry     beta= 0.70
     Davidson diagonalization with overlap

---- Real-time Memory Report at c_bands before calling an iterative solver
           508 MiB given to the printing process from OS
             0 MiB allocation reported by mallinfo(arena+hblkhd)
           379 MiB available memory on the node where the printing process lives
------------------
     ethr =  1.00E-06,  avg # of iterations =  9.0

     negative rho (up, down):  2.151E-02 0.000E+00

     total cpu time spent up to now is       10.6 secs

     total energy              =      -2.31857125 Ry
     estimated scf accuracy    <       0.00159166 Ry

     iteration #  2     ecut=    30.00 Ry     beta= 0.70
     Davidson diagonalization with overlap

---- Real-time Memory Report at c_bands before calling an iterative solver
           508 MiB given to the printing process from OS
             0 MiB allocation reported by mallinfo(arena+hblkhd)
           198 MiB available memory on the node where the printing process lives
------------------
     ethr =  7.96E-05,  avg # of iterations =  1.0

     negative rho (up, down):  2.194E-02 0.000E+00

     total cpu time spent up to now is       11.6 secs

     total energy              =      -2.31849612 Ry
     estimated scf accuracy    <       0.00001631 Ry

     iteration #  3     ecut=    30.00 Ry     beta= 0.70
     Davidson diagonalization with overlap

---- Real-time Memory Report at c_bands before calling an iterative solver
           508 MiB given to the printing process from OS
             0 MiB allocation reported by mallinfo(arena+hblkhd)
           180 MiB available memory on the node where the printing process lives
------------------
     ethr =  8.16E-07,  avg # of iterations =  5.0

     negative rho (up, down):  2.203E-02 0.000E+00

     total cpu time spent up to now is       12.9 secs

     total energy              =      -2.31845203 Ry
     estimated scf accuracy    <       0.00000072 Ry

     iteration #  4     ecut=    30.00 Ry     beta= 0.70
     Davidson diagonalization with overlap

---- Real-time Memory Report at c_bands before calling an iterative solver
           508 MiB given to the printing process from OS
             0 MiB allocation reported by mallinfo(arena+hblkhd)
           161 MiB available memory on the node where the printing process lives
------------------
     ethr =  3.58E-08,  avg # of iterations =  1.0

     negative rho (up, down):  2.203E-02 0.000E+00

     total cpu time spent up to now is       13.8 secs

     End of self-consistent calculation

          k =-0.5000-0.5000-0.5000 ( 74736 PWs)   bands (ev):

   -10.3516  -0.6468

     occupation numbers 
     1.0000   0.0000

     highest occupied, lowest unoccupied level (ev):   -10.3516   -0.6468

!    total energy              =      -2.31845319 Ry
     estimated scf accuracy    <          2.3E-10 Ry

     The total energy is the sum of the following terms:
     one-electron contribution =      -4.22490965 Ry
     hartree contribution      =       2.24253931 Ry
     xc contribution           =      -1.38499156 Ry
     ewald contribution        =       1.04890872 Ry

     convergence has been achieved in   4 iterations

     Forces acting on atoms (cartesian axes, Ry/au):

     atom    1 type  1   force =    -0.01251681    0.00000000    0.00000000
     atom    2 type  1   force =     0.01251681    0.00000000    0.00000000
     The non-local contrib.  to forces
     atom    1 type  1   force =     0.10757596    0.00000000    0.00000000
     atom    2 type  1   force =    -0.10770947    0.00000000    0.00000000
     The ionic contribution  to forces
     atom    1 type  1   force =    -1.01759736    0.00000000   -0.00000000
     atom    2 type  1   force =     1.01759736   -0.00000000   -0.00000000
     The local contribution  to forces
     atom    1 type  1   force =     0.89742955    0.00000000    0.00000000
     atom    2 type  1   force =    -0.89745169    0.00000000    0.00000000
     The core correction contribution to forces
     atom    1 type  1   force =     0.00000000    0.00000000    0.00000000
     atom    2 type  1   force =     0.00000000    0.00000000    0.00000000
     The Hubbard contrib.    to forces
     atom    1 type  1   force =     0.00000000    0.00000000    0.00000000
     atom    2 type  1   force =     0.00000000    0.00000000    0.00000000
     The SCF correction term to forces
     atom    1 type  1   force =     0.00000172   -0.00000000   -0.00000000
     atom    2 type  1   force =     0.00000730   -0.00000000   -0.00000000

     Total force =     0.017701     Total SCF correction =     0.000008
     Energy error            =      3.6E-03 Ry
     Gradient error          =      1.3E-02 Ry/Bohr

     number of scf cycles    =   2
     number of bfgs steps    =   1

     energy             old  =      -2.3148135148 Ry
     energy             new  =      -2.3184531900 Ry

     CASE: energy            _new < energy            _old

     new trust radius        =       0.0107053623 bohr
     new conv_thr            =       0.0000000013 Ry


ATOMIC_POSITIONS (angstrom)
H             0.0334794318        0.0000000000        0.0000000000
H             0.7865205682        0.0000000000        0.0000000000



     Writing config-only to output data dir ./.save/
     NEW-OLD atomic charge density approx. for the potential

     negative rho (up, down):  2.186E-02 0.000E+00

     total cpu time spent up to now is       14.9 secs

     Self-consistent Calculation

     iteration #  1     ecut=    30.00 Ry     beta= 0.70
     Davidson diagonalization with overlap

---- Real-time Memory Report at c_bands before calling an iterative solver
           508 MiB given to the printing process from OS
             0 MiB allocation reported by mallinfo(arena+hblkhd)
           379 MiB available memory on the node where the printing process lives
------------------
     ethr =  1.00E-06,  avg # of iterations =  3.0

     negative rho (up, down):  2.160E-02 0.000E+00

     total cpu time spent up to now is       16.1 secs

     total energy              =      -2.31877840 Ry
     estimated scf accuracy    <       0.00003707 Ry

     iteration #  2     ecut=    30.00 Ry     beta= 0.70
     Davidson diagonalization with overlap

---- Real-time Memory Report at c_bands before calling an iterative solver
           508 MiB given to the printing process from OS
             0 MiB allocation reported by mallinfo(arena+hblkhd)
           198 MiB available memory on the node where the printing process lives
------------------
     ethr =  1.85E-06,  avg # of iterations =  2.0

     negative rho (up, down):  2.154E-02 0.000E+00

     total cpu time spent up to now is       17.2 secs

     total energy              =      -2.31881577 Ry
     estimated scf accuracy    <       0.00000042 Ry

     iteration #  3     ecut=    30.00 Ry     beta= 0.70
     Davidson diagonalization with overlap

---- Real-time Memory Report at c_bands before calling an iterative solver
           508 MiB given to the printing process from OS
             0 MiB allocation reported by mallinfo(arena+hblkhd)
           180 MiB available memory on the node where the printing process lives
------------------
     ethr =  2.10E-08,  avg # of iterations =  2.0

     negative rho (up, down):  2.153E-02 0.000E+00

     total cpu time spent up to now is       18.3 secs

     total energy              =      -2.31882305 Ry
     estimated scf accuracy    <       0.00000002 Ry

     iteration #  4     ecut=    30.00 Ry     beta= 0.70
     Davidson diagonalization with overlap

---- Real-time Memory Report at c_bands before calling an iterative solver
           508 MiB given to the printing process from OS
             0 MiB allocation reported by mallinfo(arena+hblkhd)
           161 MiB available memory on the node where the printing process lives
------------------
     ethr =  1.01E-09,  avg # of iterations =  2.0

     negative rho (up, down):  2.153E-02 0.000E+00

     total cpu time spent up to now is       19.2 secs

     End of self-consistent calculation

          k =-0.5000-0.5000-0.5000 ( 74736 PWs)   bands (ev):

   -10.2949  -0.6197

     occupation numbers 
     1.0000   0.0000

     highest occupied, lowest unoccupied level (ev):   -10.2949   -0.6197

!    total energy              =      -2.31882352 Ry
     estimated scf accuracy    <          1.8E-10 Ry

     The total energy is the sum of the following terms:
     one-electron contribution =      -4.19575194 Ry
     hartree contribution      =       2.22723688 Ry
     xc contribution           =      -1.37775770 Ry
     ewald contribution        =       1.02744924 Ry

     convergence has been achieved in   4 iterations

     Forces acting on atoms (cartesian axes, Ry/au):

     atom    1 type  1   force =     0.00382142    0.00000000    0.00000000
     atom    2 type  1   force =    -0.00382142    0.00000000    0.00000000
     The non-local contrib.  to forces
     atom    1 type  1   force =     0.10523684    0.00000000    0.00000000
     atom    2 type  1   force =    -0.10524618    0.00000000    0.00000000
     The ionic contribution  to forces
     atom    1 type  1   force =    -0.98718684   -0.00000000   -0.00000000
     atom    2 type  1   force =     0.98718684   -0.00000000   -0.00000000
     The local contribution  to forces
     atom    1 type  1   force =     0.88575988    0.00000000    0.00000000
     atom    2 type  1   force =    -0.88576337    0.00000000    0.00000000
     The core correction contribution to forces
     atom    1 type  1   force =     0.00000000    0.00000000    0.00000000
     atom    2 type  1   force =     0.00000000    0.00000000    0.00000000
     The Hubbard contrib.    to forces
     atom    1 type  1   force =     0.00000000    0.00000000    0.00000000
     atom    2 type  1   force =     0.00000000    0.00000000    0.00000000
     The SCF correction term to forces
     atom    1 type  1   force =     0.00000946   -0.00000000    0.00000000
     atom    2 type  1   force =    -0.00000080   -0.00000000   -0.00000000

     Total force =     0.005404     Total SCF correction =     0.000009
     Energy error            =      3.7E-04 Ry
     Gradient error          =      3.8E-03 Ry/Bohr

     number of scf cycles    =   3
     number of bfgs steps    =   2

     energy             old  =      -2.3184531900 Ry
     energy             new  =      -2.3188235226 Ry

     CASE: energy            _new < energy            _old

     new trust radius        =       0.0025039255 bohr
     new conv_thr            =       0.0000000004 Ry


ATOMIC_POSITIONS (angstrom)
H             0.0348044522        0.0000000000        0.0000000000
H             0.7851955478        0.0000000000        0.0000000000



     Writing config-only to output data dir ./.save/
     NEW-OLD atomic charge density approx. for the potential

     negative rho (up, down):  2.157E-02 0.000E+00

     total cpu time spent up to now is       20.3 secs

     Self-consistent Calculation

     iteration #  1     ecut=    30.00 Ry     beta= 0.70
     Davidson diagonalization with overlap

---- Real-time Memory Report at c_bands before calling an iterative solver
           508 MiB given to the printing process from OS
             0 MiB allocation reported by mallinfo(arena+hblkhd)
           379 MiB available memory on the node where the printing process lives
------------------
     ethr =  1.00E-06,  avg # of iterations =  2.0

     Threshold (ethr) on eigenvalues was too large:
     Diagonalizing with lowered threshold

     Davidson diagonalization with overlap

---- Real-time Memory Report at c_bands before calling an iterative solver
           508 MiB given to the printing process from OS
             0 MiB allocation reported by mallinfo(arena+hblkhd)
           345 MiB available memory on the node where the printing process lives
------------------
     ethr =  9.55E-08,  avg # of iterations =  1.0

     negative rho (up, down):  2.163E-02 0.000E+00

     total cpu time spent up to now is       21.7 secs

     total energy              =      -2.31877266 Ry
     estimated scf accuracy    <       0.00000202 Ry

     iteration #  2     ecut=    30.00 Ry     beta= 0.70
     Davidson diagonalization with overlap

---- Real-time Memory Report at c_bands before calling an iterative solver
           508 MiB given to the printing process from OS
             0 MiB allocation reported by mallinfo(arena+hblkhd)
           198 MiB available memory on the node where the printing process lives
------------------
     ethr =  1.01E-07,  avg # of iterations =  1.0

     negative rho (up, down):  2.165E-02 0.000E+00

     total cpu time spent up to now is       22.7 secs

     total energy              =      -2.31876726 Ry
     estimated scf accuracy    <       0.00000002 Ry

     iteration #  3     ecut=    30.00 Ry     beta= 0.70
     Davidson diagonalization with overlap

---- Real-time Memory Report at c_bands before calling an iterative solver
           508 MiB given to the printing process from OS
             0 MiB allocation reported by mallinfo(arena+hblkhd)
           180 MiB available memory on the node where the printing process lives
------------------
     ethr =  1.21E-09,  avg # of iterations =  2.0

     negative rho (up, down):  2.165E-02 0.000E+00

     total cpu time spent up to now is       23.8 secs

     total energy              =      -2.31876504 Ry
     estimated scf accuracy    <          1.3E-09 Ry

     iteration #  4     ecut=    30.00 Ry     beta= 0.70
     Davidson diagonalization with overlap

---- Real-time Memory Report at c_bands before calling an iterative solver
           508 MiB given to the printing process from OS
             0 MiB allocation reported by mallinfo(arena+hblkhd)
           161 MiB available memory on the node where the printing process lives
------------------
     ethr =  6.67E-11,  avg # of iterations =  2.0

     negative rho (up, down):  2.165E-02 0.000E+00

     total cpu time spent up to now is       24.8 secs

     End of self-consistent calculation

          k =-0.5000-0.5000-0.5000 ( 74736 PWs)   bands (ev):

   -10.3083  -0.6277

     occupation numbers 
     1.0000   0.0000

     highest occupied, lowest unoccupied level (ev):   -10.3083   -0.6277

!    total energy              =      -2.31876472 Ry
     estimated scf accuracy    <          8.0E-11 Ry

     The total energy is the sum of the following terms:
     one-electron contribution =      -4.20253909 Ry
     hartree contribution      =       2.23080279 Ry
     xc contribution           =      -1.37943882 Ry
     ewald contribution        =       1.03241040 Ry

     convergence has been achieved in   4 iterations

     Forces acting on atoms (cartesian axes, Ry/au):

     atom    1 type  1   force =     0.00016294    0.00000000    0.00000000
     atom    2 type  1   force =    -0.00016294    0.00000000    0.00000000
     The non-local contrib.  to forces
     atom    1 type  1   force =     0.10584218    0.00000000    0.00000000
     atom    2 type  1   force =    -0.10586224    0.00000000    0.00000000
     The ionic contribution  to forces
     atom    1 type  1   force =    -0.99417647    0.00000000   -0.00000000
     atom    2 type  1   force =     0.99417647   -0.00000000   -0.00000000
     The local contribution  to forces
     atom    1 type  1   force =     0.88848149    0.00000000    0.00000000
     atom    2 type  1   force =    -0.88849782    0.00000000    0.00000000
     The core correction contribution to forces
     atom    1 type  1   force =     0.00000000    0.00000000    0.00000000
     atom    2 type  1   force =     0.00000000    0.00000000    0.00000000
     The Hubbard contrib.    to forces
     atom    1 type  1   force =     0.00000000    0.00000000    0.00000000
     atom    2 type  1   force =     0.00000000    0.00000000    0.00000000
     The SCF correction term to forces
     atom    1 type  1   force =     0.00000037   -0.00000000   -0.00000000
     atom    2 type  1   force =     0.00000527    0.00000000    0.00000000

     Total force =     0.000230     Total SCF correction =     0.000005
     Energy error            =      5.9E-05 Ry
     Gradient error          =      1.6E-04 Ry/Bohr

     bfgs converged in   4 scf cycles and   3 bfgs steps
     (criteria: energy <  1.0E-04 Ry, force <  1.0E-03 Ry/Bohr)

     End of BFGS Geometry Optimization

     Final energy             =      -2.3187647228 Ry

     File ./.bfgs deleted, as requested
Begin final coordinates

ATOMIC_POSITIONS (angstrom)
H             0.0348044522        0.0000000000        0.0000000000
H             0.7851955478        0.0000000000        0.0000000000
End final coordinates



     Writing all to output data dir ./.save/

     init_run     :      1.05s CPU      1.09s WALL (       1 calls)
     electrons    :     20.50s CPU     20.66s WALL (       4 calls)
     update_pot   :      1.98s CPU      1.99s WALL (       3 calls)
     forces       :      1.04s CPU      1.07s WALL (       4 calls)

     Called by init_run:
     wfcinit      :      0.10s CPU      0.10s WALL (       1 calls)
     wfcinit:atom :      0.00s CPU      0.00s WALL (       1 calls)
     wfcinit:wfcr :      0.09s CPU      0.09s WALL (       1 calls)
     potinit      :      0.60s CPU      0.62s WALL (       1 calls)
     hinit0       :      0.05s CPU      0.06s WALL (       1 calls)

     Called by electrons:
     c_bands      :      5.61s CPU      5.62s WALL (      19 calls)
     sum_band     :      2.83s CPU      2.85s WALL (      19 calls)
     v_of_rho     :     11.90s CPU     11.96s WALL (      22 calls)
     v_h          :      0.82s CPU      0.82s WALL (      22 calls)
     v_xc         :     11.08s CPU     11.13s WALL (      22 calls)
     newd         :      1.01s CPU      1.01s WALL (      22 calls)
     mix_rho      :      1.09s CPU      1.14s WALL (      19 calls)

     Called by c_bands:
     init_us_2    :      0.07s CPU      0.08s WALL (      39 calls)
     init_us_2:cp :      0.07s CPU      0.08s WALL (      39 calls)
     cegterg      :      5.57s CPU      5.57s WALL (      19 calls)

     Called by sum_band:
     sum_band:wei :      0.00s CPU      0.00s WALL (      19 calls)
     sum_band:loo :      0.88s CPU      0.88s WALL (      19 calls)
     sum_band:buf :      0.00s CPU      0.00s WALL (      19 calls)
     sum_band:ini :      0.04s CPU      0.04s WALL (      19 calls)
     sum_band:cal :      0.01s CPU      0.01s WALL (      19 calls)
     sum_band:bec :      0.00s CPU      0.00s WALL (      19 calls)
     addusdens    :      0.23s CPU      0.25s WALL (      19 calls)
     addusd:skk   :      0.06s CPU      0.07s WALL (      19 calls)
     addusd:dgemm :      0.06s CPU      0.06s WALL (      19 calls)
     addusd:qvan2 :      0.06s CPU      0.07s WALL (      19 calls)

     Called by *egterg:
     cdiaghg      :      0.00s CPU      0.00s WALL (      72 calls)
     cegterg:over :      0.07s CPU      0.07s WALL (      57 calls)
     cegterg:upda :      0.05s CPU      0.05s WALL (      57 calls)
     cegterg:last :      0.10s CPU      0.10s WALL (      48 calls)
     h_psi        :      5.33s CPU      5.33s WALL (      77 calls)
     s_psi        :      0.03s CPU      0.03s WALL (      77 calls)
     g_psi        :      0.02s CPU      0.02s WALL (      57 calls)

     Called by h_psi:
     h_psi:calbec :      0.04s CPU      0.04s WALL (      77 calls)
     vloc_psi     :      5.25s CPU      5.25s WALL (      77 calls)
     add_vuspsi   :      0.03s CPU      0.03s WALL (      77 calls)

     General routines
     calbec       :      0.05s CPU      0.05s WALL (     112 calls)
     fft          :      7.46s CPU      7.46s WALL (     254 calls)
     ffts         :      0.57s CPU      0.57s WALL (      19 calls)
     fftw         :      5.47s CPU      5.47s WALL (     286 calls)


     PWSCF        :     24.90s CPU     25.16s WALL


   This run was terminated on:   4:17:23  28Feb2022            

=------------------------------------------------------------------------------=
   JOB DONE.
=------------------------------------------------------------------------------=
