
     Program PWSCF v.7.0 starts on 28Feb2022 at  4: 0:10 

     This program is part of the open-source Quantum ESPRESSO suite
     for quantum simulation of materials; please cite
         "P. Giannozzi et al., J. Phys.:Condens. Matter 21 395502 (2009);
         "P. Giannozzi et al., J. Phys.:Condens. Matter 29 465901 (2017);
         "P. Giannozzi et al., J. Chem. Phys. 152 154105 (2020);
          URL http://www.quantum-espresso.org", 
     in publications or presentations arising from this work. More details at
     http://www.quantum-espresso.org/quote

     Serial version
     545 MiB available memory on the printing compute node when the environment starts

     Waiting for input...
     Reading input from standard input

     Current dimensions of program PWSCF are:
     Max number of different atomic species (ntypx) = 10
     Max number of k-points (npk) =  40000
     Max angular momentum in pseudopotentials (lmaxx) =  4

     File ./.update deleted, as requested

     File ./.bfgs deleted, as requested

    ============================================================
    |  pseudopotential report for atomic species:  1           |
    |        pseudo potential version   7   3   2              |
    ------------------------------------------------------------
    |  hydrogen            PBE                  exchange-corr  |
    |  z =   1.    zv( 1) =   1.    exfact =   5.00000         |
    |  ifpcor =  0           atomic energy =  -0.91772 Ry      |
    |  index    orbital      occupation    energy              |
    |    1        100           1.00       -0.48               |
    |  rinner =  0.5000                                        |
    |    new generation scheme:                                |
    |    nbeta =  1     kkbeta =  271     rcloc =    0.6000    |
    |    ibeta    l     epsilon   rcut                         |
    |      1       0      -0.48   0.80                         |
    ============================================================

     IMPORTANT: XC functional enforced from input :
     Exchange-correlation= BLYP
                           (   1   3   1   3   0   0   0)
     Any further DFT definition will be discarded
     Please, verify this is what you really want


     G-vector sticks info
     --------------------
     sticks:   dense  smooth     PW     G-vecs:    dense   smooth      PW
     Sum        7153    7153   1925               455863   455863   63461

     Using Slab Decomposition



     bravais-lattice index     =            1
     lattice parameter (alat)  =      30.0000  a.u.
     unit-cell volume          =   27000.0000 (a.u.)^3
     number of atoms/cell      =            2
     number of atomic types    =            1
     number of electrons       =         2.00
     number of Kohn-Sham states=            2
     kinetic-energy cutoff     =      25.0000  Ry
     charge density cutoff     =     100.0000  Ry
     scf convergence threshold =      1.0E-08
     mixing beta               =       0.7000
     number of iterations used =            8  plain     mixing
     energy convergence thresh.=      1.0E-04
     force convergence thresh. =      1.0E-03
     Exchange-correlation= BLYP
                           (   1   3   1   3   0   0   0)
     nstep                     =           50


     celldm(1)=  30.000000  celldm(2)=   0.000000  celldm(3)=   0.000000
     celldm(4)=   0.000000  celldm(5)=   0.000000  celldm(6)=   0.000000

     crystal axes: (cart. coord. in units of alat)
               a(1) = (   1.000000   0.000000   0.000000 )  
               a(2) = (   0.000000   1.000000   0.000000 )  
               a(3) = (   0.000000   0.000000   1.000000 )  

     reciprocal axes: (cart. coord. in units 2 pi/alat)
               b(1) = (  1.000000  0.000000  0.000000 )  
               b(2) = (  0.000000  1.000000  0.000000 )  
               b(3) = (  0.000000  0.000000  1.000000 )  


     PseudoPot. # 1 for hy read from file:
     /root/q-e/pseudo/H_US.van
     MD5 check sum: a9a9bfe98ff56cf4de197d71fc46bb44
     Pseudo is Ultrasoft, Zval =  1.0
     Generated by Vanderbilt code, v. 7.3.2
     Using radial grid of  399 points,  1 beta functions with: 
                l(1) =   0
     Q(r) pseudized with  8 coefficients,  rinner =    0.500

     atomic species   valence    mass     pseudopotential
        H              1.00     1.00784     hy( 1.00)

      8 Sym. Ops. (no inversion) found


                                    s                        frac. trans.

      isym =  1     identity                                     

 cryst.   s( 1) = (     1          0          0      )
                  (     0          1          0      )
                  (     0          0          1      )

 cart.    s( 1) = (  1.0000000  0.0000000  0.0000000 )
                  (  0.0000000  1.0000000  0.0000000 )
                  (  0.0000000  0.0000000  1.0000000 )


      isym =  2     180 deg rotation - cart. axis [1,0,0]        

 cryst.   s( 2) = (     1          0          0      )
                  (     0         -1          0      )
                  (     0          0         -1      )

 cart.    s( 2) = (  1.0000000  0.0000000  0.0000000 )
                  (  0.0000000 -1.0000000  0.0000000 )
                  (  0.0000000  0.0000000 -1.0000000 )


      isym =  3      90 deg rotation - cart. axis [-1,0,0]       

 cryst.   s( 3) = (     1          0          0      )
                  (     0          0         -1      )
                  (     0          1          0      )

 cart.    s( 3) = (  1.0000000  0.0000000  0.0000000 )
                  (  0.0000000  0.0000000  1.0000000 )
                  (  0.0000000 -1.0000000  0.0000000 )


      isym =  4      90 deg rotation - cart. axis [1,0,0]        

 cryst.   s( 4) = (     1          0          0      )
                  (     0          0          1      )
                  (     0         -1          0      )

 cart.    s( 4) = (  1.0000000  0.0000000  0.0000000 )
                  (  0.0000000  0.0000000 -1.0000000 )
                  (  0.0000000  1.0000000  0.0000000 )


      isym =  5     inv. 180 deg rotation - cart. axis [0,0,1]   

 cryst.   s( 5) = (     1          0          0      )
                  (     0          1          0      )
                  (     0          0         -1      )

 cart.    s( 5) = (  1.0000000  0.0000000  0.0000000 )
                  (  0.0000000  1.0000000  0.0000000 )
                  (  0.0000000  0.0000000 -1.0000000 )


      isym =  6     inv. 180 deg rotation - cart. axis [0,1,0]   

 cryst.   s( 6) = (     1          0          0      )
                  (     0         -1          0      )
                  (     0          0          1      )

 cart.    s( 6) = (  1.0000000  0.0000000  0.0000000 )
                  (  0.0000000 -1.0000000  0.0000000 )
                  (  0.0000000  0.0000000  1.0000000 )


      isym =  7     inv. 180 deg rotation - cart. axis [0,1,1]   

 cryst.   s( 7) = (     1          0          0      )
                  (     0          0         -1      )
                  (     0         -1          0      )

 cart.    s( 7) = (  1.0000000  0.0000000  0.0000000 )
                  (  0.0000000  0.0000000 -1.0000000 )
                  (  0.0000000 -1.0000000  0.0000000 )


      isym =  8     inv. 180 deg rotation - cart. axis [0,1,-1]  

 cryst.   s( 8) = (     1          0          0      )
                  (     0          0          1      )
                  (     0          1          0      )

 cart.    s( 8) = (  1.0000000  0.0000000  0.0000000 )
                  (  0.0000000  0.0000000  1.0000000 )
                  (  0.0000000  1.0000000  0.0000000 )


     point group C_4v (4mm) 
     there are  5 classes
     the character table:

       E     2C4   C2    2s_v  2s_d 
A_1    1.00  1.00  1.00  1.00  1.00
A_2    1.00  1.00  1.00 -1.00 -1.00
B_1    1.00 -1.00  1.00  1.00 -1.00
B_2    1.00 -1.00  1.00 -1.00  1.00
E      2.00  0.00 -2.00  0.00  0.00

     the symmetry operations in each class and the name of the first element:

     E        1
          identity                                               
     2C4      3    4
           90 deg rotation - cart. axis [-1,0,0]                 
     C2       2
          180 deg rotation - cart. axis [1,0,0]                  
     2s_v     5    6
          inv. 180 deg rotation - cart. axis [0,0,1]             
     2s_d     7    8
          inv. 180 deg rotation - cart. axis [0,1,1]             

   Cartesian axes

     site n.     atom                  positions (alat units)
         1           H   tau(   1) = (   0.0000000   0.0000000   0.0000000  )
         2           H   tau(   2) = (   0.0529123   0.0000000   0.0000000  )

   Crystallographic axes

     site n.     atom                  positions (cryst. coord.)
         1           H   tau(   1) = (  0.0000000  0.0000000  0.0000000  )
         2           H   tau(   2) = (  0.0529123  0.0000000  0.0000000  )

     number of k points=     1
                       cart. coord. in units 2pi/alat
        k(    1) = (  -0.5000000  -0.5000000  -0.5000000), wk =   2.0000000

                       cryst. coord.
        k(    1) = (  -0.5000000  -0.5000000  -0.5000000), wk =   2.0000000

     Dense  grid:   455863 G-vectors     FFT dimensions: (  96,  96,  96)

     Dynamical RAM for                 wfc:       1.74 MB

     Dynamical RAM for     wfc (w. buffer):       1.74 MB

     Dynamical RAM for           str. fact:       6.96 MB

     Dynamical RAM for           local pot:       0.00 MB

     Dynamical RAM for          nlocal pot:       1.74 MB

     Dynamical RAM for                qrad:       0.01 MB

     Dynamical RAM for          rho,v,vnew:      41.12 MB

     Dynamical RAM for               rhoin:      13.71 MB

     Dynamical RAM for            rho*nmix:     111.29 MB

     Dynamical RAM for           G-vectors:      29.56 MB

     Dynamical RAM for          h,s,v(r/c):       0.00 MB

     Dynamical RAM for          <psi|beta>:       0.00 MB

     Dynamical RAM for                 psi:       3.48 MB

     Dynamical RAM for                hpsi:       3.48 MB

     Dynamical RAM for                spsi:       3.48 MB

     Dynamical RAM for      wfcinit/wfcrot:       3.48 MB

     Dynamical RAM for           addusdens:      41.74 MB

     Dynamical RAM for          addusforce:      59.13 MB

     Estimated static dynamical RAM per process >     142.49 MB

     Estimated max dynamical RAM per process >     312.91 MB

     Initial potential from superposition of free atoms

     starting charge       2.0000, renormalised to       2.0000

     negative rho (up, down):  2.972E-02 0.000E+00
     Starting wfcs are    2 randomized atomic wfcs

     total cpu time spent up to now is        0.8 secs

     Self-consistent Calculation

     iteration #  1     ecut=    25.00 Ry     beta= 0.70
     Davidson diagonalization with overlap

---- Real-time Memory Report at c_bands before calling an iterative solver
           243 MiB given to the printing process from OS
             0 MiB allocation reported by mallinfo(arena+hblkhd)
           377 MiB available memory on the node where the printing process lives
------------------
     ethr =  1.00E-02,  avg # of iterations =  3.0

     negative rho (up, down):  3.785E-02 0.000E+00

     total cpu time spent up to now is        1.6 secs

     total energy              =      -2.30543703 Ry
     estimated scf accuracy    <       0.08859420 Ry

     iteration #  2     ecut=    25.00 Ry     beta= 0.70
     Davidson diagonalization with overlap

---- Real-time Memory Report at c_bands before calling an iterative solver
           306 MiB given to the printing process from OS
             0 MiB allocation reported by mallinfo(arena+hblkhd)
           252 MiB available memory on the node where the printing process lives
------------------
     ethr =  4.43E-03,  avg # of iterations =  2.0

     negative rho (up, down):  3.931E-02 0.000E+00

     total cpu time spent up to now is        2.4 secs

     total energy              =      -2.31050993 Ry
     estimated scf accuracy    <       0.00101761 Ry

     iteration #  3     ecut=    25.00 Ry     beta= 0.70
     Davidson diagonalization with overlap

---- Real-time Memory Report at c_bands before calling an iterative solver
           320 MiB given to the printing process from OS
             0 MiB allocation reported by mallinfo(arena+hblkhd)
           238 MiB available memory on the node where the printing process lives
------------------
     ethr =  5.09E-05,  avg # of iterations = 11.0

     negative rho (up, down):  3.896E-02 0.000E+00

     total cpu time spent up to now is        3.5 secs

     total energy              =      -2.31104338 Ry
     estimated scf accuracy    <       0.00001432 Ry

     iteration #  4     ecut=    25.00 Ry     beta= 0.70
     Davidson diagonalization with overlap

---- Real-time Memory Report at c_bands before calling an iterative solver
           334 MiB given to the printing process from OS
             0 MiB allocation reported by mallinfo(arena+hblkhd)
           224 MiB available memory on the node where the printing process lives
------------------
     ethr =  7.16E-07,  avg # of iterations =  5.0

     negative rho (up, down):  3.894E-02 0.000E+00

     total cpu time spent up to now is        4.3 secs

     total energy              =      -2.31105963 Ry
     estimated scf accuracy    <       0.00000050 Ry

     iteration #  5     ecut=    25.00 Ry     beta= 0.70
     Davidson diagonalization with overlap

---- Real-time Memory Report at c_bands before calling an iterative solver
           348 MiB given to the printing process from OS
             0 MiB allocation reported by mallinfo(arena+hblkhd)
           210 MiB available memory on the node where the printing process lives
------------------
     ethr =  2.50E-08,  avg # of iterations =  2.0

     negative rho (up, down):  3.895E-02 0.000E+00

     total cpu time spent up to now is        5.0 secs

     End of self-consistent calculation

          k =-0.5000-0.5000-0.5000 ( 57016 PWs)   bands (ev):

    -9.9586  -0.9517

     occupation numbers 
     1.0000   0.0000

     highest occupied, lowest unoccupied level (ev):    -9.9586   -0.9517

!    total energy              =      -2.31105277 Ry
     estimated scf accuracy    <          8.7E-09 Ry

     The total energy is the sum of the following terms:
     one-electron contribution =      -3.98740510 Ry
     hartree contribution      =       2.12370140 Ry
     xc contribution           =      -1.32938100 Ry
     ewald contribution        =       0.88203193 Ry

     convergence has been achieved in   5 iterations

     Forces acting on atoms (cartesian axes, Ry/au):

     atom    1 type  1   force =     0.10746139    0.00000000    0.00000000
     atom    2 type  1   force =    -0.10746139    0.00000000    0.00000000
     The non-local contrib.  to forces
     atom    1 type  1   force =     0.09799958    0.00000000    0.00000000
     atom    2 type  1   force =    -0.09757305    0.00000000    0.00000000
     The ionic contribution  to forces
     atom    1 type  1   force =    -0.79323501   -0.00000000   -0.00000000
     atom    2 type  1   force =     0.79323501   -0.00000000   -0.00000000
     The local contribution  to forces
     atom    1 type  1   force =     0.80293829    0.00000000    0.00000000
     atom    2 type  1   force =    -0.80295208    0.00000000    0.00000000
     The core correction contribution to forces
     atom    1 type  1   force =     0.00000000    0.00000000    0.00000000
     atom    2 type  1   force =     0.00000000    0.00000000    0.00000000
     The Hubbard contrib.    to forces
     atom    1 type  1   force =     0.00000000    0.00000000    0.00000000
     atom    2 type  1   force =     0.00000000    0.00000000    0.00000000
     The SCF correction term to forces
     atom    1 type  1   force =    -0.00000989   -0.00000000    0.00000000
     atom    2 type  1   force =     0.00006031    0.00000000   -0.00000000

     Total force =     0.151973     Total SCF correction =     0.000061

     BFGS Geometry Optimization
     Energy error            =      0.0E+00 Ry
     Gradient error          =      1.1E-01 Ry/Bohr

     number of scf cycles    =   1
     number of bfgs steps    =   0

     energy             new  =      -2.3110527706 Ry

     new trust radius        =       0.1074613858 bohr
     new conv_thr            =       0.0000000100 Ry


ATOMIC_POSITIONS (angstrom)
H             0.0568661164        0.0000000000        0.0000000000
H             0.7831338836        0.0000000000        0.0000000000



     Writing config-only to output data dir ./.save/
     NEW-OLD atomic charge density approx. for the potential

     negative rho (up, down):  3.939E-02 0.000E+00

     total cpu time spent up to now is        5.8 secs

     Self-consistent Calculation

     iteration #  1     ecut=    25.00 Ry     beta= 0.70
     Davidson diagonalization with overlap

---- Real-time Memory Report at c_bands before calling an iterative solver
           355 MiB given to the printing process from OS
             0 MiB allocation reported by mallinfo(arena+hblkhd)
           370 MiB available memory on the node where the printing process lives
------------------
     ethr =  1.00E-06,  avg # of iterations =  9.0

     negative rho (up, down):  4.471E-02 0.000E+00

     total cpu time spent up to now is        6.9 secs

     total energy              =      -2.31709914 Ry
     estimated scf accuracy    <       0.00336859 Ry

     iteration #  2     ecut=    25.00 Ry     beta= 0.70
     Davidson diagonalization with overlap

---- Real-time Memory Report at c_bands before calling an iterative solver
           355 MiB given to the printing process from OS
             0 MiB allocation reported by mallinfo(arena+hblkhd)
           245 MiB available memory on the node where the printing process lives
------------------
     ethr =  1.68E-04,  avg # of iterations =  1.0

     negative rho (up, down):  4.592E-02 0.000E+00

     total cpu time spent up to now is        7.6 secs

     total energy              =      -2.31656726 Ry
     estimated scf accuracy    <       0.00003400 Ry

     iteration #  3     ecut=    25.00 Ry     beta= 0.70
     Davidson diagonalization with overlap

---- Real-time Memory Report at c_bands before calling an iterative solver
           355 MiB given to the printing process from OS
             0 MiB allocation reported by mallinfo(arena+hblkhd)
           231 MiB available memory on the node where the printing process lives
------------------
     ethr =  1.70E-06,  avg # of iterations =  5.0

     negative rho (up, down):  4.619E-02 0.000E+00

     total cpu time spent up to now is        8.5 secs

     total energy              =      -2.31636602 Ry
     estimated scf accuracy    <       0.00000142 Ry

     iteration #  4     ecut=    25.00 Ry     beta= 0.70
     Davidson diagonalization with overlap

---- Real-time Memory Report at c_bands before calling an iterative solver
           355 MiB given to the printing process from OS
             0 MiB allocation reported by mallinfo(arena+hblkhd)
           217 MiB available memory on the node where the printing process lives
------------------
     ethr =  7.08E-08,  avg # of iterations =  2.0

     negative rho (up, down):  4.619E-02 0.000E+00

     total cpu time spent up to now is        9.3 secs

     End of self-consistent calculation

          k =-0.5000-0.5000-0.5000 ( 57016 PWs)   bands (ev):

   -10.5049  -1.1527

     occupation numbers 
     1.0000   0.0000

     highest occupied, lowest unoccupied level (ev):   -10.5049   -1.1527

!    total energy              =      -2.31637215 Ry
     estimated scf accuracy    <          3.8E-09 Ry

     The total energy is the sum of the following terms:
     one-electron contribution =      -4.26855323 Ry
     hartree contribution      =       2.27180372 Ry
     xc contribution           =      -1.39886041 Ry
     ewald contribution        =       1.07923777 Ry

     convergence has been achieved in   4 iterations

     Forces acting on atoms (cartesian axes, Ry/au):

     atom    1 type  1   force =    -0.03519252    0.00000000    0.00000000
     atom    2 type  1   force =     0.03519252    0.00000000    0.00000000
     The non-local contrib.  to forces
     atom    1 type  1   force =     0.10848650    0.00000000    0.00000000
     atom    2 type  1   force =    -0.10874271    0.00000000    0.00000000
     The ionic contribution  to forces
     atom    1 type  1   force =    -1.06136173    0.00000000   -0.00000000
     atom    2 type  1   force =     1.06136173    0.00000000   -0.00000000
     The local contribution  to forces
     atom    1 type  1   force =     0.91756664    0.00000000    0.00000000
     atom    2 type  1   force =    -0.91760049    0.00000000    0.00000000
     The core correction contribution to forces
     atom    1 type  1   force =     0.00000000    0.00000000    0.00000000
     atom    2 type  1   force =     0.00000000    0.00000000    0.00000000
     The Hubbard contrib.    to forces
     atom    1 type  1   force =     0.00000000    0.00000000    0.00000000
     atom    2 type  1   force =     0.00000000    0.00000000    0.00000000
     The SCF correction term to forces
     atom    1 type  1   force =    -0.00002527    0.00000000    0.00000000
     atom    2 type  1   force =     0.00003265    0.00000000    0.00000000

     Total force =     0.049770     Total SCF correction =     0.000041
     Energy error            =      5.3E-03 Ry
     Gradient error          =      3.5E-02 Ry/Bohr

     number of scf cycles    =   2
     number of bfgs steps    =   1

     energy             old  =      -2.3110527706 Ry
     energy             new  =      -2.3163721480 Ry

     CASE: energy            _new < energy            _old

     new trust radius        =       0.0265105745 bohr
     new conv_thr            =       0.0000000035 Ry


ATOMIC_POSITIONS (angstrom)
H             0.0428373245        0.0000000000        0.0000000000
H             0.7971626755        0.0000000000        0.0000000000



     Writing config-only to output data dir ./.save/
     NEW-OLD atomic charge density approx. for the potential

     negative rho (up, down):  4.621E-02 0.000E+00

     total cpu time spent up to now is       10.1 secs

     Self-consistent Calculation

     iteration #  1     ecut=    25.00 Ry     beta= 0.70
     Davidson diagonalization with overlap

---- Real-time Memory Report at c_bands before calling an iterative solver
           355 MiB given to the printing process from OS
             0 MiB allocation reported by mallinfo(arena+hblkhd)
           370 MiB available memory on the node where the printing process lives
------------------
     ethr =  1.00E-06,  avg # of iterations =  4.0

     negative rho (up, down):  4.507E-02 0.000E+00

     total cpu time spent up to now is       11.0 secs

     total energy              =      -2.31764647 Ry
     estimated scf accuracy    <       0.00023054 Ry

     iteration #  2     ecut=    25.00 Ry     beta= 0.70
     Davidson diagonalization with overlap

---- Real-time Memory Report at c_bands before calling an iterative solver
           355 MiB given to the printing process from OS
             0 MiB allocation reported by mallinfo(arena+hblkhd)
           245 MiB available memory on the node where the printing process lives
------------------
     ethr =  1.15E-05,  avg # of iterations =  1.0

     negative rho (up, down):  4.485E-02 0.000E+00

     total cpu time spent up to now is       11.8 secs

     total energy              =      -2.31782095 Ry
     estimated scf accuracy    <       0.00000271 Ry

     iteration #  3     ecut=    25.00 Ry     beta= 0.70
     Davidson diagonalization with overlap

---- Real-time Memory Report at c_bands before calling an iterative solver
           355 MiB given to the printing process from OS
             0 MiB allocation reported by mallinfo(arena+hblkhd)
           231 MiB available memory on the node where the printing process lives
------------------
     ethr =  1.35E-07,  avg # of iterations =  2.0

     negative rho (up, down):  4.482E-02 0.000E+00

     total cpu time spent up to now is       12.6 secs

     total energy              =      -2.31785351 Ry
     estimated scf accuracy    <       0.00000013 Ry

     iteration #  4     ecut=    25.00 Ry     beta= 0.70
     Davidson diagonalization with overlap

---- Real-time Memory Report at c_bands before calling an iterative solver
           355 MiB given to the printing process from OS
             0 MiB allocation reported by mallinfo(arena+hblkhd)
           217 MiB available memory on the node where the printing process lives
------------------
     ethr =  6.36E-09,  avg # of iterations =  2.0

     negative rho (up, down):  4.482E-02 0.000E+00

     total cpu time spent up to now is       13.3 secs

     End of self-consistent calculation

          k =-0.5000-0.5000-0.5000 ( 57016 PWs)   bands (ev):

   -10.3625  -1.1209

     occupation numbers 
     1.0000   0.0000

     highest occupied, lowest unoccupied level (ev):   -10.3625   -1.1209

!    total energy              =      -2.31785570 Ry
     estimated scf accuracy    <          1.3E-09 Ry

     The total energy is the sum of the following terms:
     one-electron contribution =      -4.19573914 Ry
     hartree contribution      =       2.23360744 Ry
     xc contribution           =      -1.38078161 Ry
     ewald contribution        =       1.02505761 Ry

     convergence has been achieved in   4 iterations

     Forces acting on atoms (cartesian axes, Ry/au):

     atom    1 type  1   force =     0.01263008    0.00000000    0.00000000
     atom    2 type  1   force =    -0.01263008    0.00000000    0.00000000
     The non-local contrib.  to forces
     atom    1 type  1   force =     0.10801438    0.00000000    0.00000000
     atom    2 type  1   force =    -0.10814790    0.00000000    0.00000000
     The ionic contribution  to forces
     atom    1 type  1   force =    -0.98382611    0.00000000   -0.00000000
     atom    2 type  1   force =     0.98382611    0.00000000   -0.00000000
     The local contribution  to forces
     atom    1 type  1   force =     0.88830294    0.00000000    0.00000000
     atom    2 type  1   force =    -0.88836036    0.00000000    0.00000000
     The core correction contribution to forces
     atom    1 type  1   force =     0.00000000    0.00000000    0.00000000
     atom    2 type  1   force =     0.00000000    0.00000000    0.00000000
     The Hubbard contrib.    to forces
     atom    1 type  1   force =     0.00000000    0.00000000    0.00000000
     atom    2 type  1   force =     0.00000000    0.00000000    0.00000000
     The SCF correction term to forces
     atom    1 type  1   force =     0.00000050    0.00000000   -0.00000000
     atom    2 type  1   force =    -0.00008631   -0.00000000   -0.00000000

     Total force =     0.017862     Total SCF correction =     0.000086
     Energy error            =      1.5E-03 Ry
     Gradient error          =      1.3E-02 Ry/Bohr

     number of scf cycles    =   3
     number of bfgs steps    =   2

     energy             old  =      -2.3163721480 Ry
     energy             new  =      -2.3178557046 Ry

     CASE: energy            _new < energy            _old

     new trust radius        =       0.0070015169 bohr
     new conv_thr            =       0.0000000013 Ry


ATOMIC_POSITIONS (angstrom)
H             0.0465423677        0.0000000000        0.0000000000
H             0.7934576323        0.0000000000        0.0000000000



     Writing config-only to output data dir ./.save/
     NEW-OLD atomic charge density approx. for the potential

     negative rho (up, down):  4.482E-02 0.000E+00

     total cpu time spent up to now is       14.1 secs

     Self-consistent Calculation

     iteration #  1     ecut=    25.00 Ry     beta= 0.70
     Davidson diagonalization with overlap

---- Real-time Memory Report at c_bands before calling an iterative solver
           355 MiB given to the printing process from OS
             0 MiB allocation reported by mallinfo(arena+hblkhd)
           370 MiB available memory on the node where the printing process lives
------------------
     ethr =  1.00E-06,  avg # of iterations =  2.0

     negative rho (up, down):  4.513E-02 0.000E+00

     total cpu time spent up to now is       14.9 secs

     total energy              =      -2.31777058 Ry
     estimated scf accuracy    <       0.00001490 Ry

     iteration #  2     ecut=    25.00 Ry     beta= 0.70
     Davidson diagonalization with overlap

---- Real-time Memory Report at c_bands before calling an iterative solver
           355 MiB given to the printing process from OS
             0 MiB allocation reported by mallinfo(arena+hblkhd)
           245 MiB available memory on the node where the printing process lives
------------------
     ethr =  7.45E-07,  avg # of iterations =  1.0

     negative rho (up, down):  4.520E-02 0.000E+00

     total cpu time spent up to now is       15.6 secs

     total energy              =      -2.31771483 Ry
     estimated scf accuracy    <       0.00000029 Ry

     iteration #  3     ecut=    25.00 Ry     beta= 0.70
     Davidson diagonalization with overlap

---- Real-time Memory Report at c_bands before calling an iterative solver
           355 MiB given to the printing process from OS
             0 MiB allocation reported by mallinfo(arena+hblkhd)
           231 MiB available memory on the node where the printing process lives
------------------
     ethr =  1.47E-08,  avg # of iterations =  2.0

     negative rho (up, down):  4.521E-02 0.000E+00

     total cpu time spent up to now is       16.3 secs

     total energy              =      -2.31770710 Ry
     estimated scf accuracy    <       0.00000001 Ry

     iteration #  4     ecut=    25.00 Ry     beta= 0.70
     Davidson diagonalization with overlap

---- Real-time Memory Report at c_bands before calling an iterative solver
           355 MiB given to the printing process from OS
             0 MiB allocation reported by mallinfo(arena+hblkhd)
           217 MiB available memory on the node where the printing process lives
------------------
     ethr =  5.47E-10,  avg # of iterations =  2.0

     negative rho (up, down):  4.521E-02 0.000E+00

     total cpu time spent up to now is       17.0 secs

     End of self-consistent calculation

          k =-0.5000-0.5000-0.5000 ( 57016 PWs)   bands (ev):

   -10.4004  -1.1368

     occupation numbers 
     1.0000   0.0000

     highest occupied, lowest unoccupied level (ev):   -10.4004   -1.1368

!    total energy              =      -2.31770623 Ry
     estimated scf accuracy    <          9.0E-10 Ry

     The total energy is the sum of the following terms:
     one-electron contribution =      -4.21474735 Ry
     hartree contribution      =       2.24360188 Ry
     xc contribution           =      -1.38553170 Ry
     ewald contribution        =       1.03897093 Ry

     convergence has been achieved in   4 iterations

     Forces acting on atoms (cartesian axes, Ry/au):

     atom    1 type  1   force =     0.00085946    0.00000000    0.00000000
     atom    2 type  1   force =    -0.00085946    0.00000000    0.00000000
     The non-local contrib.  to forces
     atom    1 type  1   force =     0.10814159    0.00000000    0.00000000
     atom    2 type  1   force =    -0.10843086    0.00000000    0.00000000
     The ionic contribution  to forces
     atom    1 type  1   force =    -1.00345718   -0.00000000   -0.00000000
     atom    2 type  1   force =     1.00345718    0.00000000   -0.00000000
     The local contribution  to forces
     atom    1 type  1   force =     0.89600474    0.00000000    0.00000000
     atom    2 type  1   force =    -0.89605314    0.00000000    0.00000000
     The core correction contribution to forces
     atom    1 type  1   force =     0.00000000    0.00000000    0.00000000
     atom    2 type  1   force =     0.00000000    0.00000000    0.00000000
     The Hubbard contrib.    to forces
     atom    1 type  1   force =     0.00000000    0.00000000    0.00000000
     atom    2 type  1   force =     0.00000000    0.00000000    0.00000000
     The SCF correction term to forces
     atom    1 type  1   force =     0.00001322    0.00000000    0.00000000
     atom    2 type  1   force =     0.00001028    0.00000000    0.00000000

     Total force =     0.001215     Total SCF correction =     0.000017
     Energy error            =      1.5E-04 Ry
     Gradient error          =      8.6E-04 Ry/Bohr

     number of scf cycles    =   4
     number of bfgs steps    =   3

     energy             old  =      -2.3178557046 Ry
     energy             new  =      -2.3177062348 Ry

     CASE: energy            _new > energy            _old

     new trust radius        =       0.0018972934 bohr
     new conv_thr            =       0.0000000013 Ry


ATOMIC_POSITIONS (angstrom)
H             0.0438413289        0.0000000000        0.0000000000
H             0.7961586711        0.0000000000        0.0000000000



     Writing config-only to output data dir ./.save/
     NEW-OLD atomic charge density approx. for the potential

     negative rho (up, down):  4.521E-02 0.000E+00

     total cpu time spent up to now is       17.8 secs

     Self-consistent Calculation

     iteration #  1     ecut=    25.00 Ry     beta= 0.70
     Davidson diagonalization with overlap

---- Real-time Memory Report at c_bands before calling an iterative solver
           355 MiB given to the printing process from OS
             0 MiB allocation reported by mallinfo(arena+hblkhd)
           369 MiB available memory on the node where the printing process lives
------------------
     ethr =  1.00E-06,  avg # of iterations =  2.0

     negative rho (up, down):  4.499E-02 0.000E+00

     total cpu time spent up to now is       18.6 secs

     total energy              =      -2.31777989 Ry
     estimated scf accuracy    <       0.00000775 Ry

     iteration #  2     ecut=    25.00 Ry     beta= 0.70
     Davidson diagonalization with overlap

---- Real-time Memory Report at c_bands before calling an iterative solver
           355 MiB given to the printing process from OS
             0 MiB allocation reported by mallinfo(arena+hblkhd)
           244 MiB available memory on the node where the printing process lives
------------------
     ethr =  3.88E-07,  avg # of iterations =  1.0

     negative rho (up, down):  4.494E-02 0.000E+00

     total cpu time spent up to now is       19.4 secs

     total energy              =      -2.31781381 Ry
     estimated scf accuracy    <       0.00000018 Ry

     iteration #  3     ecut=    25.00 Ry     beta= 0.70
     Davidson diagonalization with overlap

---- Real-time Memory Report at c_bands before calling an iterative solver
           355 MiB given to the printing process from OS
             0 MiB allocation reported by mallinfo(arena+hblkhd)
           230 MiB available memory on the node where the printing process lives
------------------
     ethr =  8.77E-09,  avg # of iterations =  2.0

     negative rho (up, down):  4.493E-02 0.000E+00

     total cpu time spent up to now is       20.1 secs

     total energy              =      -2.31781903 Ry
     estimated scf accuracy    <          6.8E-09 Ry

     iteration #  4     ecut=    25.00 Ry     beta= 0.70
     Davidson diagonalization with overlap

---- Real-time Memory Report at c_bands before calling an iterative solver
           355 MiB given to the printing process from OS
             0 MiB allocation reported by mallinfo(arena+hblkhd)
           217 MiB available memory on the node where the printing process lives
------------------
     ethr =  3.40E-10,  avg # of iterations =  2.0

     negative rho (up, down):  4.493E-02 0.000E+00

     total cpu time spent up to now is       20.8 secs

     End of self-consistent calculation

          k =-0.5000-0.5000-0.5000 ( 57016 PWs)   bands (ev):

   -10.3726  -1.1252

     occupation numbers 
     1.0000   0.0000

     highest occupied, lowest unoccupied level (ev):   -10.3726   -1.1252

!    total energy              =      -2.31781816 Ry
     estimated scf accuracy    <          8.7E-10 Ry

     The total energy is the sum of the following terms:
     one-electron contribution =      -4.20088193 Ry
     hartree contribution      =       2.23632227 Ry
     xc contribution           =      -1.38205930 Ry
     ewald contribution        =       1.02880079 Ry

     convergence has been achieved in   4 iterations

     Forces acting on atoms (cartesian axes, Ry/au):

     atom    1 type  1   force =     0.00946585    0.00000000    0.00000000
     atom    2 type  1   force =    -0.00946585    0.00000000    0.00000000
     The non-local contrib.  to forces
     atom    1 type  1   force =     0.10805041    0.00000000    0.00000000
     atom    2 type  1   force =    -0.10824193    0.00000000    0.00000000
     The ionic contribution  to forces
     atom    1 type  1   force =    -0.98908856    0.00000000   -0.00000000
     atom    2 type  1   force =     0.98908856    0.00000000   -0.00000000
     The local contribution  to forces
     atom    1 type  1   force =     0.89039208    0.00000000    0.00000000
     atom    2 type  1   force =    -0.89044515    0.00000000    0.00000000
     The core correction contribution to forces
     atom    1 type  1   force =     0.00000000    0.00000000    0.00000000
     atom    2 type  1   force =     0.00000000    0.00000000    0.00000000
     The Hubbard contrib.    to forces
     atom    1 type  1   force =     0.00000000    0.00000000    0.00000000
     atom    2 type  1   force =     0.00000000    0.00000000    0.00000000
     The SCF correction term to forces
     atom    1 type  1   force =    -0.00001713    0.00000000    0.00000000
     atom    2 type  1   force =     0.00000362   -0.00000000   -0.00000000

     Total force =     0.013387     Total SCF correction =     0.000018
     Energy error            =      3.8E-05 Ry
     Gradient error          =      9.5E-03 Ry/Bohr

     number of scf cycles    =   5
     number of bfgs steps    =   3

     energy             old  =      -2.3178557046 Ry
     energy             new  =      -2.3178181640 Ry

     CASE: energy            _new > energy            _old

     new trust radius        =       0.0005319603 bohr
     new conv_thr            =       0.0000000013 Ry


ATOMIC_POSITIONS (angstrom)
H             0.0431188258        0.0000000000        0.0000000000
H             0.7968811742        0.0000000000        0.0000000000



     Writing config-only to output data dir ./.save/
     NEW-OLD atomic charge density approx. for the potential

     negative rho (up, down):  4.493E-02 0.000E+00

     total cpu time spent up to now is       21.6 secs

     Self-consistent Calculation

     iteration #  1     ecut=    25.00 Ry     beta= 0.70
     Davidson diagonalization with overlap

---- Real-time Memory Report at c_bands before calling an iterative solver
           355 MiB given to the printing process from OS
             0 MiB allocation reported by mallinfo(arena+hblkhd)
           369 MiB available memory on the node where the printing process lives
------------------
     ethr =  1.00E-06,  avg # of iterations =  2.0

     Threshold (ethr) on eigenvalues was too large:
     Diagonalizing with lowered threshold

     Davidson diagonalization with overlap

---- Real-time Memory Report at c_bands before calling an iterative solver
           355 MiB given to the printing process from OS
             0 MiB allocation reported by mallinfo(arena+hblkhd)
           370 MiB available memory on the node where the printing process lives
------------------
     ethr =  2.64E-08,  avg # of iterations =  1.0

     negative rho (up, down):  4.487E-02 0.000E+00

     total cpu time spent up to now is       22.6 secs

     total energy              =      -2.31783082 Ry
     estimated scf accuracy    <       0.00000056 Ry

     iteration #  2     ecut=    25.00 Ry     beta= 0.70
     Davidson diagonalization with overlap

---- Real-time Memory Report at c_bands before calling an iterative solver
           355 MiB given to the printing process from OS
             0 MiB allocation reported by mallinfo(arena+hblkhd)
           244 MiB available memory on the node where the printing process lives
------------------
     ethr =  2.82E-08,  avg # of iterations =  2.0

     negative rho (up, down):  4.486E-02 0.000E+00

     total cpu time spent up to now is       23.4 secs

     total energy              =      -2.31784654 Ry
     estimated scf accuracy    <          8.8E-09 Ry

     iteration #  3     ecut=    25.00 Ry     beta= 0.70
     Davidson diagonalization with overlap

---- Real-time Memory Report at c_bands before calling an iterative solver
           355 MiB given to the printing process from OS
             0 MiB allocation reported by mallinfo(arena+hblkhd)
           230 MiB available memory on the node where the printing process lives
------------------
     ethr =  4.42E-10,  avg # of iterations =  3.0

     negative rho (up, down):  4.486E-02 0.000E+00

     total cpu time spent up to now is       24.2 secs

     total energy              =      -2.31784124 Ry
     estimated scf accuracy    <          2.1E-09 Ry

     iteration #  4     ecut=    25.00 Ry     beta= 0.70
     Davidson diagonalization with overlap

---- Real-time Memory Report at c_bands before calling an iterative solver
           355 MiB given to the printing process from OS
             0 MiB allocation reported by mallinfo(arena+hblkhd)
           216 MiB available memory on the node where the printing process lives
------------------
     ethr =  1.06E-10,  avg # of iterations =  3.0

     negative rho (up, down):  4.486E-02 0.000E+00

     total cpu time spent up to now is       25.0 secs

     total energy              =      -2.31784615 Ry
     estimated scf accuracy    <          1.3E-09 Ry

     iteration #  5     ecut=    25.00 Ry     beta= 0.70
     Davidson diagonalization with overlap

---- Real-time Memory Report at c_bands before calling an iterative solver
           356 MiB given to the printing process from OS
             0 MiB allocation reported by mallinfo(arena+hblkhd)
           203 MiB available memory on the node where the printing process lives
------------------
     ethr =  6.58E-11,  avg # of iterations =  3.0

     negative rho (up, down):  4.486E-02 0.000E+00

     total cpu time spent up to now is       25.7 secs

     End of self-consistent calculation

          k =-0.5000-0.5000-0.5000 ( 57016 PWs)   bands (ev):

   -10.3654  -1.1229

     occupation numbers 
     1.0000   0.0000

     highest occupied, lowest unoccupied level (ev):   -10.3654   -1.1229

!    total energy              =      -2.31784349 Ry
     estimated scf accuracy    <          2.7E-10 Ry

     The total energy is the sum of the following terms:
     one-electron contribution =      -4.19719089 Ry
     hartree contribution      =       2.23438853 Ry
     xc contribution           =      -1.38114624 Ry
     ewald contribution        =       1.02610510 Ry

     convergence has been achieved in   5 iterations

     Forces acting on atoms (cartesian axes, Ry/au):

     atom    1 type  1   force =     0.01176313    0.00000000    0.00000000
     atom    2 type  1   force =    -0.01176313    0.00000000    0.00000000
     The non-local contrib.  to forces
     atom    1 type  1   force =     0.10805433    0.00000000    0.00000000
     atom    2 type  1   force =    -0.10818133    0.00000000    0.00000000
     The ionic contribution  to forces
     atom    1 type  1   force =    -0.98529735   -0.00000000   -0.00000000
     atom    2 type  1   force =     0.98529735    0.00000000   -0.00000000
     The local contribution  to forces
     atom    1 type  1   force =     0.88889880    0.00000000    0.00000000
     atom    2 type  1   force =    -0.88894939    0.00000000    0.00000000
     The core correction contribution to forces
     atom    1 type  1   force =     0.00000000    0.00000000    0.00000000
     atom    2 type  1   force =     0.00000000    0.00000000    0.00000000
     The Hubbard contrib.    to forces
     atom    1 type  1   force =     0.00000000    0.00000000    0.00000000
     atom    2 type  1   force =     0.00000000    0.00000000    0.00000000
     The SCF correction term to forces
     atom    1 type  1   force =     0.00000152    0.00000000    0.00000000
     atom    2 type  1   force =    -0.00003559   -0.00000000    0.00000000

     Total force =     0.016636     Total SCF correction =     0.000036
     Energy error            =      1.2E-05 Ry
     Gradient error          =      1.2E-02 Ry/Bohr

     number of scf cycles    =   6
     number of bfgs steps    =   3

     energy             old  =      -2.3178557046 Ry
     energy             new  =      -2.3178434944 Ry

     CASE: energy            _new > energy            _old

     new trust radius        =       0.0001393534 bohr
     new conv_thr            =       0.0000000013 Ry


ATOMIC_POSITIONS (angstrom)
H             0.0429110672        0.0000000000        0.0000000000
H             0.7970889328        0.0000000000        0.0000000000



     Writing config-only to output data dir ./.save/
     NEW-OLD atomic charge density approx. for the potential

     negative rho (up, down):  4.485E-02 0.000E+00

     total cpu time spent up to now is       26.5 secs

     Self-consistent Calculation

     iteration #  1     ecut=    25.00 Ry     beta= 0.70
     Davidson diagonalization with overlap

---- Real-time Memory Report at c_bands before calling an iterative solver
           356 MiB given to the printing process from OS
             0 MiB allocation reported by mallinfo(arena+hblkhd)
           369 MiB available memory on the node where the printing process lives
------------------
     ethr =  1.00E-06,  avg # of iterations =  2.0

     Threshold (ethr) on eigenvalues was too large:
     Diagonalizing with lowered threshold

     Davidson diagonalization with overlap

---- Real-time Memory Report at c_bands before calling an iterative solver
           356 MiB given to the printing process from OS
             0 MiB allocation reported by mallinfo(arena+hblkhd)
           370 MiB available memory on the node where the printing process lives
------------------
     ethr =  1.98E-09,  avg # of iterations =  1.0

     negative rho (up, down):  4.484E-02 0.000E+00

     total cpu time spent up to now is       27.5 secs

     total energy              =      -2.31784865 Ry
     estimated scf accuracy    <       0.00000005 Ry

     iteration #  2     ecut=    25.00 Ry     beta= 0.70
     Davidson diagonalization with overlap

---- Real-time Memory Report at c_bands before calling an iterative solver
           356 MiB given to the printing process from OS
             0 MiB allocation reported by mallinfo(arena+hblkhd)
           244 MiB available memory on the node where the printing process lives
------------------
     ethr =  2.26E-09,  avg # of iterations =  2.0

     negative rho (up, down):  4.484E-02 0.000E+00

     total cpu time spent up to now is       28.2 secs

     End of self-consistent calculation

          k =-0.5000-0.5000-0.5000 ( 57016 PWs)   bands (ev):

   -10.3634  -1.1220

     occupation numbers 
     1.0000   0.0000

     highest occupied, lowest unoccupied level (ev):   -10.3634   -1.1220

!    total energy              =      -2.31785121 Ry
     estimated scf accuracy    <          7.3E-10 Ry

     The total energy is the sum of the following terms:
     one-electron contribution =      -4.19615874 Ry
     hartree contribution      =       2.23388583 Ry
     xc contribution           =      -1.38091016 Ry
     ewald contribution        =       1.02533186 Ry

     convergence has been achieved in   2 iterations

     Forces acting on atoms (cartesian axes, Ry/au):

     atom    1 type  1   force =     0.01236027    0.00000000    0.00000000
     atom    2 type  1   force =    -0.01236027    0.00000000    0.00000000
     The non-local contrib.  to forces
     atom    1 type  1   force =     0.10804978    0.00000000    0.00000000
     atom    2 type  1   force =    -0.10813415    0.00000000    0.00000000
     The ionic contribution  to forces
     atom    1 type  1   force =    -0.98421120    0.00000000   -0.00000000
     atom    2 type  1   force =     0.98421120   -0.00000000   -0.00000000
     The local contribution  to forces
     atom    1 type  1   force =     0.88847693    0.00000000    0.00000000
     atom    2 type  1   force =    -0.88854887    0.00000000    0.00000000
     The core correction contribution to forces
     atom    1 type  1   force =     0.00000000    0.00000000    0.00000000
     atom    2 type  1   force =     0.00000000    0.00000000    0.00000000
     The Hubbard contrib.    to forces
     atom    1 type  1   force =     0.00000000    0.00000000    0.00000000
     atom    2 type  1   force =     0.00000000    0.00000000    0.00000000
     The SCF correction term to forces
     atom    1 type  1   force =     0.00001136    0.00000000    0.00000000
     atom    2 type  1   force =     0.00007815   -0.00000000    0.00000000

     Total force =     0.017480     Total SCF correction =     0.000079
     Energy error            =      4.5E-06 Ry
     Gradient error          =      1.2E-02 Ry/Bohr

     number of scf cycles    =   7
     number of bfgs steps    =   3

     energy             old  =      -2.3178557046 Ry
     energy             new  =      -2.3178512052 Ry

     CASE: energy            _new > energy            _old

     new trust radius        =       0.0000305842 bohr

     trust_radius < trust_radius_min

     resetting bfgs history

     new conv_thr            =       0.0000000013 Ry


ATOMIC_POSITIONS (angstrom)
H             0.0495208768        0.0000000000        0.0000000000
H             0.7904791232        0.0000000000        0.0000000000



     Writing config-only to output data dir ./.save/
     NEW-OLD atomic charge density approx. for the potential

     negative rho (up, down):  4.480E-02 0.000E+00

     total cpu time spent up to now is       29.0 secs

     Self-consistent Calculation

     iteration #  1     ecut=    25.00 Ry     beta= 0.70
     Davidson diagonalization with overlap

---- Real-time Memory Report at c_bands before calling an iterative solver
           356 MiB given to the printing process from OS
             0 MiB allocation reported by mallinfo(arena+hblkhd)
           369 MiB available memory on the node where the printing process lives
------------------
     ethr =  1.00E-06,  avg # of iterations =  3.0

     negative rho (up, down):  4.537E-02 0.000E+00

     total cpu time spent up to now is       29.8 secs

     total energy              =      -2.31754888 Ry
     estimated scf accuracy    <       0.00004941 Ry

     iteration #  2     ecut=    25.00 Ry     beta= 0.70
     Davidson diagonalization with overlap

---- Real-time Memory Report at c_bands before calling an iterative solver
           356 MiB given to the printing process from OS
             0 MiB allocation reported by mallinfo(arena+hblkhd)
           244 MiB available memory on the node where the printing process lives
------------------
     ethr =  2.47E-06,  avg # of iterations =  1.0

     negative rho (up, down):  4.549E-02 0.000E+00

     total cpu time spent up to now is       30.6 secs

     total energy              =      -2.31746988 Ry
     estimated scf accuracy    <       0.00000063 Ry

     iteration #  3     ecut=    25.00 Ry     beta= 0.70
     Davidson diagonalization with overlap

---- Real-time Memory Report at c_bands before calling an iterative solver
           356 MiB given to the printing process from OS
             0 MiB allocation reported by mallinfo(arena+hblkhd)
           230 MiB available memory on the node where the printing process lives
------------------
     ethr =  3.13E-08,  avg # of iterations =  2.0

     negative rho (up, down):  4.551E-02 0.000E+00

     total cpu time spent up to now is       31.3 secs

     total energy              =      -2.31745602 Ry
     estimated scf accuracy    <       0.00000002 Ry

     iteration #  4     ecut=    25.00 Ry     beta= 0.70
     Davidson diagonalization with overlap

---- Real-time Memory Report at c_bands before calling an iterative solver
           356 MiB given to the printing process from OS
             0 MiB allocation reported by mallinfo(arena+hblkhd)
           216 MiB available memory on the node where the printing process lives
------------------
     ethr =  1.25E-09,  avg # of iterations =  2.0

     negative rho (up, down):  4.551E-02 0.000E+00

     total cpu time spent up to now is       32.0 secs

     End of self-consistent calculation

          k =-0.5000-0.5000-0.5000 ( 57016 PWs)   bands (ev):

   -10.4300  -1.1415

     occupation numbers 
     1.0000   0.0000

     highest occupied, lowest unoccupied level (ev):   -10.4300   -1.1415

!    total energy              =      -2.31745055 Ry
     estimated scf accuracy    <          1.1E-09 Ry

     The total energy is the sum of the following terms:
     one-electron contribution =      -4.23016201 Ry
     hartree contribution      =       2.25171363 Ry
     xc contribution           =      -1.38936003 Ry
     ewald contribution        =       1.05035785 Ry

     convergence has been achieved in   4 iterations

     Forces acting on atoms (cartesian axes, Ry/au):

     atom    1 type  1   force =    -0.00889342    0.00000000    0.00000000
     atom    2 type  1   force =     0.00889342    0.00000000    0.00000000
     The non-local contrib.  to forces
     atom    1 type  1   force =     0.10844337    0.00000000    0.00000000
     atom    2 type  1   force =    -0.10867037    0.00000000    0.00000000
     The ionic contribution  to forces
     atom    1 type  1   force =    -1.01966753    0.00000000   -0.00000000
     atom    2 type  1   force =     1.01966753    0.00000000   -0.00000000
     The local contribution  to forces
     atom    1 type  1   force =     0.90221091    0.00000000    0.00000000
     atom    2 type  1   force =    -0.90225357    0.00000000    0.00000000
     The core correction contribution to forces
     atom    1 type  1   force =     0.00000000    0.00000000    0.00000000
     atom    2 type  1   force =     0.00000000    0.00000000    0.00000000
     The Hubbard contrib.    to forces
     atom    1 type  1   force =     0.00000000    0.00000000    0.00000000
     atom    2 type  1   force =     0.00000000    0.00000000    0.00000000
     The SCF correction term to forces
     atom    1 type  1   force =    -0.00002612   -0.00000000    0.00000000
     atom    2 type  1   force =     0.00000389    0.00000000   -0.00000000

     Total force =     0.012577     Total SCF correction =     0.000026
     Energy error            =      4.1E-04 Ry
     Gradient error          =      8.9E-03 Ry/Bohr

     number of scf cycles    =   8
     number of bfgs steps    =   3

     energy             old  =      -2.3178557046 Ry
     energy             new  =      -2.3174505525 Ry

     CASE: energy            _new > energy            _old

     new trust radius        =       0.0027820574 bohr
     new conv_thr            =       0.0000000013 Ry


ATOMIC_POSITIONS (angstrom)
H             0.0443095259        0.0000000000        0.0000000000
H             0.7956904741        0.0000000000        0.0000000000



     Writing config-only to output data dir ./.save/
     NEW-OLD atomic charge density approx. for the potential

     negative rho (up, down):  4.552E-02 0.000E+00

     total cpu time spent up to now is       32.8 secs

     Self-consistent Calculation

     iteration #  1     ecut=    25.00 Ry     beta= 0.70
     Davidson diagonalization with overlap

---- Real-time Memory Report at c_bands before calling an iterative solver
           356 MiB given to the printing process from OS
             0 MiB allocation reported by mallinfo(arena+hblkhd)
           369 MiB available memory on the node where the printing process lives
------------------
     ethr =  1.00E-06,  avg # of iterations =  3.0

     negative rho (up, down):  4.509E-02 0.000E+00

     total cpu time spent up to now is       33.7 secs

     total energy              =      -2.31771956 Ry
     estimated scf accuracy    <       0.00003111 Ry

     iteration #  2     ecut=    25.00 Ry     beta= 0.70
     Davidson diagonalization with overlap

---- Real-time Memory Report at c_bands before calling an iterative solver
           356 MiB given to the printing process from OS
             0 MiB allocation reported by mallinfo(arena+hblkhd)
           244 MiB available memory on the node where the printing process lives
------------------
     ethr =  1.56E-06,  avg # of iterations =  1.0

     negative rho (up, down):  4.499E-02 0.000E+00

     total cpu time spent up to now is       34.4 secs

     total energy              =      -2.31779497 Ry
     estimated scf accuracy    <       0.00000043 Ry

     iteration #  3     ecut=    25.00 Ry     beta= 0.70
     Davidson diagonalization with overlap

---- Real-time Memory Report at c_bands before calling an iterative solver
           356 MiB given to the printing process from OS
             0 MiB allocation reported by mallinfo(arena+hblkhd)
           230 MiB available memory on the node where the printing process lives
------------------
     ethr =  2.17E-08,  avg # of iterations =  2.0

     negative rho (up, down):  4.498E-02 0.000E+00

     total cpu time spent up to now is       35.2 secs

     total energy              =      -2.31780695 Ry
     estimated scf accuracy    <       0.00000002 Ry

     iteration #  4     ecut=    25.00 Ry     beta= 0.70
     Davidson diagonalization with overlap

---- Real-time Memory Report at c_bands before calling an iterative solver
           356 MiB given to the printing process from OS
             0 MiB allocation reported by mallinfo(arena+hblkhd)
           216 MiB available memory on the node where the printing process lives
------------------
     ethr =  1.22E-09,  avg # of iterations =  2.0

     negative rho (up, down):  4.498E-02 0.000E+00

     total cpu time spent up to now is       36.0 secs

     total energy              =      -2.31780553 Ry
     estimated scf accuracy    <          3.9E-09 Ry

     iteration #  5     ecut=    25.00 Ry     beta= 0.70
     Davidson diagonalization with overlap

---- Real-time Memory Report at c_bands before calling an iterative solver
           356 MiB given to the printing process from OS
             0 MiB allocation reported by mallinfo(arena+hblkhd)
           202 MiB available memory on the node where the printing process lives
------------------
     ethr =  1.96E-10,  avg # of iterations =  2.0

     negative rho (up, down):  4.498E-02 0.000E+00

     total cpu time spent up to now is       36.7 secs

     End of self-consistent calculation

          k =-0.5000-0.5000-0.5000 ( 57016 PWs)   bands (ev):

   -10.3776  -1.1288

     occupation numbers 
     1.0000   0.0000

     highest occupied, lowest unoccupied level (ev):   -10.3776   -1.1288

!    total energy              =      -2.31780887 Ry
     estimated scf accuracy    <          2.3E-10 Ry

     The total energy is the sum of the following terms:
     one-electron contribution =      -4.20326582 Ry
     hartree contribution      =       2.23755748 Ry
     xc contribution           =      -1.38265371 Ry
     ewald contribution        =       1.03055319 Ry

     convergence has been achieved in   5 iterations

     Forces acting on atoms (cartesian axes, Ry/au):

     atom    1 type  1   force =     0.00805477    0.00000000    0.00000000
     atom    2 type  1   force =    -0.00805477    0.00000000    0.00000000
     The non-local contrib.  to forces
     atom    1 type  1   force =     0.10814105    0.00000000    0.00000000
     atom    2 type  1   force =    -0.10828034    0.00000000    0.00000000
     The ionic contribution  to forces
     atom    1 type  1   force =    -0.99155703   -0.00000000   -0.00000000
     atom    2 type  1   force =     0.99155703   -0.00000000   -0.00000000
     The local contribution  to forces
     atom    1 type  1   force =     0.89135948    0.00000000    0.00000000
     atom    2 type  1   force =    -0.89141162    0.00000000    0.00000000
     The core correction contribution to forces
     atom    1 type  1   force =     0.00000000    0.00000000    0.00000000
     atom    2 type  1   force =     0.00000000    0.00000000    0.00000000
     The Hubbard contrib.    to forces
     atom    1 type  1   force =     0.00000000    0.00000000    0.00000000
     atom    2 type  1   force =     0.00000000    0.00000000    0.00000000
     The SCF correction term to forces
     atom    1 type  1   force =     0.00004295   -0.00000000   -0.00000000
     atom    2 type  1   force =     0.00001184   -0.00000000    0.00000000

     Total force =     0.011391     Total SCF correction =     0.000045
     Energy error            =      4.7E-05 Ry
     Gradient error          =      8.1E-03 Ry/Bohr

     number of scf cycles    =   9
     number of bfgs steps    =   3

     energy             old  =      -2.3178557046 Ry
     energy             new  =      -2.3178088676 Ry

     CASE: energy            _new > energy            _old

     new trust radius        =       0.0008347116 bohr
     new conv_thr            =       0.0000000013 Ry


ATOMIC_POSITIONS (angstrom)
H             0.0432790349        0.0000000000        0.0000000000
H             0.7967209651        0.0000000000        0.0000000000



     Writing config-only to output data dir ./.save/
     NEW-OLD atomic charge density approx. for the potential

     negative rho (up, down):  4.498E-02 0.000E+00

     total cpu time spent up to now is       37.5 secs

     Self-consistent Calculation

     iteration #  1     ecut=    25.00 Ry     beta= 0.70
     Davidson diagonalization with overlap

---- Real-time Memory Report at c_bands before calling an iterative solver
           356 MiB given to the printing process from OS
             0 MiB allocation reported by mallinfo(arena+hblkhd)
           369 MiB available memory on the node where the printing process lives
------------------
     ethr =  1.00E-06,  avg # of iterations =  2.0

     Threshold (ethr) on eigenvalues was too large:
     Diagonalizing with lowered threshold

     Davidson diagonalization with overlap

---- Real-time Memory Report at c_bands before calling an iterative solver
           356 MiB given to the printing process from OS
             0 MiB allocation reported by mallinfo(arena+hblkhd)
           369 MiB available memory on the node where the printing process lives
------------------
     ethr =  5.46E-08,  avg # of iterations =  1.0

     negative rho (up, down):  4.489E-02 0.000E+00

     total cpu time spent up to now is       38.5 secs

     total energy              =      -2.31782908 Ry
     estimated scf accuracy    <       0.00000116 Ry

     iteration #  2     ecut=    25.00 Ry     beta= 0.70
     Davidson diagonalization with overlap

---- Real-time Memory Report at c_bands before calling an iterative solver
           356 MiB given to the printing process from OS
             0 MiB allocation reported by mallinfo(arena+hblkhd)
           244 MiB available memory on the node where the printing process lives
------------------
     ethr =  5.78E-08,  avg # of iterations =  2.0

     negative rho (up, down):  4.488E-02 0.000E+00

     total cpu time spent up to now is       39.3 secs

     total energy              =      -2.31783527 Ry
     estimated scf accuracy    <       0.00000002 Ry

     iteration #  3     ecut=    25.00 Ry     beta= 0.70
     Davidson diagonalization with overlap

---- Real-time Memory Report at c_bands before calling an iterative solver
           356 MiB given to the printing process from OS
             0 MiB allocation reported by mallinfo(arena+hblkhd)
           230 MiB available memory on the node where the printing process lives
------------------
     ethr =  8.08E-10,  avg # of iterations =  2.0

     negative rho (up, down):  4.487E-02 0.000E+00

     total cpu time spent up to now is       40.0 secs

     End of self-consistent calculation

          k =-0.5000-0.5000-0.5000 ( 57016 PWs)   bands (ev):

   -10.3674  -1.1237

     occupation numbers 
     1.0000   0.0000

     highest occupied, lowest unoccupied level (ev):   -10.3674   -1.1237

!    total energy              =      -2.31783998 Ry
     estimated scf accuracy    <          6.7E-10 Ry

     The total energy is the sum of the following terms:
     one-electron contribution =      -4.19801128 Ry
     hartree contribution      =       2.23482302 Ry
     xc contribution           =      -1.38135367 Ry
     ewald contribution        =       1.02670196 Ry

     convergence has been achieved in   3 iterations

     Forces acting on atoms (cartesian axes, Ry/au):

     atom    1 type  1   force =     0.01120212    0.00000000    0.00000000
     atom    2 type  1   force =    -0.01120212    0.00000000    0.00000000
     The non-local contrib.  to forces
     atom    1 type  1   force =     0.10798719    0.00000000    0.00000000
     atom    2 type  1   force =    -0.10822524    0.00000000    0.00000000
     The ionic contribution  to forces
     atom    1 type  1   force =    -0.98613614   -0.00000000   -0.00000000
     atom    2 type  1   force =     0.98613614    0.00000000   -0.00000000
     The local contribution  to forces
     atom    1 type  1   force =     0.88923911    0.00000000    0.00000000
     atom    2 type  1   force =    -0.88929083    0.00000000    0.00000000
     The core correction contribution to forces
     atom    1 type  1   force =     0.00000000    0.00000000    0.00000000
     atom    2 type  1   force =     0.00000000    0.00000000    0.00000000
     The Hubbard contrib.    to forces
     atom    1 type  1   force =     0.00000000    0.00000000    0.00000000
     atom    2 type  1   force =     0.00000000    0.00000000    0.00000000
     The SCF correction term to forces
     atom    1 type  1   force =    -0.00006296    0.00000000    0.00000000
     atom    2 type  1   force =     0.00000291    0.00000000    0.00000000

     Total force =     0.015842     Total SCF correction =     0.000063
     Energy error            =      1.6E-05 Ry
     Gradient error          =      1.1E-02 Ry/Bohr

     number of scf cycles    =  10
     number of bfgs steps    =   3

     energy             old  =      -2.3178557046 Ry
     energy             new  =      -2.3178399750 Ry

     CASE: energy            _new > energy            _old

     new trust radius        =       0.0002390342 bohr
     new conv_thr            =       0.0000000013 Ry


ATOMIC_POSITIONS (angstrom)
H             0.0429638160        0.0000000000        0.0000000000
H             0.7970361840        0.0000000000        0.0000000000



     Writing config-only to output data dir ./.save/
     NEW-OLD atomic charge density approx. for the potential

     negative rho (up, down):  4.487E-02 0.000E+00

     total cpu time spent up to now is       40.8 secs

     Self-consistent Calculation

     iteration #  1     ecut=    25.00 Ry     beta= 0.70
     Davidson diagonalization with overlap

---- Real-time Memory Report at c_bands before calling an iterative solver
           356 MiB given to the printing process from OS
             0 MiB allocation reported by mallinfo(arena+hblkhd)
           369 MiB available memory on the node where the printing process lives
------------------
     ethr =  1.00E-06,  avg # of iterations =  2.0

     Threshold (ethr) on eigenvalues was too large:
     Diagonalizing with lowered threshold

     Davidson diagonalization with overlap

---- Real-time Memory Report at c_bands before calling an iterative solver
           356 MiB given to the printing process from OS
             0 MiB allocation reported by mallinfo(arena+hblkhd)
           369 MiB available memory on the node where the printing process lives
------------------
     ethr =  4.26E-09,  avg # of iterations =  1.0

     negative rho (up, down):  4.485E-02 0.000E+00

     total cpu time spent up to now is       41.8 secs

     total energy              =      -2.31784205 Ry
     estimated scf accuracy    <       0.00000010 Ry

     iteration #  2     ecut=    25.00 Ry     beta= 0.70
     Davidson diagonalization with overlap

---- Real-time Memory Report at c_bands before calling an iterative solver
           356 MiB given to the printing process from OS
             0 MiB allocation reported by mallinfo(arena+hblkhd)
           244 MiB available memory on the node where the printing process lives
------------------
     ethr =  4.83E-09,  avg # of iterations =  2.0

     negative rho (up, down):  4.484E-02 0.000E+00

     total cpu time spent up to now is       42.5 secs

     total energy              =      -2.31784820 Ry
     estimated scf accuracy    <          2.7E-09 Ry

     iteration #  3     ecut=    25.00 Ry     beta= 0.70
     Davidson diagonalization with overlap

---- Real-time Memory Report at c_bands before calling an iterative solver
           356 MiB given to the printing process from OS
             0 MiB allocation reported by mallinfo(arena+hblkhd)
           230 MiB available memory on the node where the printing process lives
------------------
     ethr =  1.34E-10,  avg # of iterations =  3.0

     negative rho (up, down):  4.484E-02 0.000E+00

     total cpu time spent up to now is       43.3 secs

     End of self-consistent calculation

          k =-0.5000-0.5000-0.5000 ( 57016 PWs)   bands (ev):

   -10.3640  -1.1224

     occupation numbers 
     1.0000   0.0000

     highest occupied, lowest unoccupied level (ev):   -10.3640   -1.1224

!    total energy              =      -2.31784911 Ry
     estimated scf accuracy    <          1.0E-10 Ry

     The total energy is the sum of the following terms:
     one-electron contribution =      -4.19640681 Ry
     hartree contribution      =       2.23398831 Ry
     xc contribution           =      -1.38095871 Ry
     ewald contribution        =       1.02552810 Ry

     convergence has been achieved in   3 iterations

     Forces acting on atoms (cartesian axes, Ry/au):

     atom    1 type  1   force =     0.01224927    0.00000000    0.00000000
     atom    2 type  1   force =    -0.01224927    0.00000000    0.00000000
     The non-local contrib.  to forces
     atom    1 type  1   force =     0.10803518    0.00000000    0.00000000
     atom    2 type  1   force =    -0.10818919    0.00000000    0.00000000
     The ionic contribution  to forces
     atom    1 type  1   force =    -0.98448680    0.00000000   -0.00000000
     atom    2 type  1   force =     0.98448680    0.00000000   -0.00000000
     The local contribution  to forces
     atom    1 type  1   force =     0.88858773    0.00000000    0.00000000
     atom    2 type  1   force =    -0.88863776    0.00000000    0.00000000
     The core correction contribution to forces
     atom    1 type  1   force =     0.00000000    0.00000000    0.00000000
     atom    2 type  1   force =     0.00000000    0.00000000    0.00000000
     The Hubbard contrib.    to forces
     atom    1 type  1   force =     0.00000000    0.00000000    0.00000000
     atom    2 type  1   force =     0.00000000    0.00000000    0.00000000
     The SCF correction term to forces
     atom    1 type  1   force =    -0.00003268   -0.00000000    0.00000000
     atom    2 type  1   force =    -0.00005494   -0.00000000    0.00000000

     Total force =     0.017323     Total SCF correction =     0.000064
     Energy error            =      6.6E-06 Ry
     Gradient error          =      1.2E-02 Ry/Bohr

     number of scf cycles    =  11
     number of bfgs steps    =   3

     energy             old  =      -2.3178557046 Ry
     energy             new  =      -2.3178491054 Ry

     CASE: energy            _new > energy            _old

     new trust radius        =       0.0000571051 bohr

     trust_radius < trust_radius_min

     resetting bfgs history

     new conv_thr            =       0.0000000013 Ry


ATOMIC_POSITIONS (angstrom)
H             0.0495208768        0.0000000000        0.0000000000
H             0.7904791232        0.0000000000        0.0000000000



     Writing config-only to output data dir ./.save/
     NEW-OLD atomic charge density approx. for the potential

     negative rho (up, down):  4.481E-02 0.000E+00

     total cpu time spent up to now is       44.1 secs

     Self-consistent Calculation

     iteration #  1     ecut=    25.00 Ry     beta= 0.70
     Davidson diagonalization with overlap

---- Real-time Memory Report at c_bands before calling an iterative solver
           356 MiB given to the printing process from OS
             0 MiB allocation reported by mallinfo(arena+hblkhd)
           369 MiB available memory on the node where the printing process lives
------------------
     ethr =  1.00E-06,  avg # of iterations =  3.0

     negative rho (up, down):  4.537E-02 0.000E+00

     total cpu time spent up to now is       44.9 secs

     total energy              =      -2.31754626 Ry
     estimated scf accuracy    <       0.00004906 Ry

     iteration #  2     ecut=    25.00 Ry     beta= 0.70
     Davidson diagonalization with overlap

---- Real-time Memory Report at c_bands before calling an iterative solver
           356 MiB given to the printing process from OS
             0 MiB allocation reported by mallinfo(arena+hblkhd)
           244 MiB available memory on the node where the printing process lives
------------------
     ethr =  2.45E-06,  avg # of iterations =  1.0

     negative rho (up, down):  4.549E-02 0.000E+00

     total cpu time spent up to now is       45.6 secs

     total energy              =      -2.31746954 Ry
     estimated scf accuracy    <       0.00000061 Ry

     iteration #  3     ecut=    25.00 Ry     beta= 0.70
     Davidson diagonalization with overlap

---- Real-time Memory Report at c_bands before calling an iterative solver
           356 MiB given to the printing process from OS
             0 MiB allocation reported by mallinfo(arena+hblkhd)
           230 MiB available memory on the node where the printing process lives
------------------
     ethr =  3.07E-08,  avg # of iterations =  2.0

     negative rho (up, down):  4.551E-02 0.000E+00

     total cpu time spent up to now is       46.4 secs

     total energy              =      -2.31745616 Ry
     estimated scf accuracy    <       0.00000003 Ry

     iteration #  4     ecut=    25.00 Ry     beta= 0.70
     Davidson diagonalization with overlap

---- Real-time Memory Report at c_bands before calling an iterative solver
           356 MiB given to the printing process from OS
             0 MiB allocation reported by mallinfo(arena+hblkhd)
           216 MiB available memory on the node where the printing process lives
------------------
     ethr =  1.30E-09,  avg # of iterations =  2.0

     negative rho (up, down):  4.551E-02 0.000E+00

     total cpu time spent up to now is       47.2 secs

     total energy              =      -2.31745546 Ry
     estimated scf accuracy    <          1.5E-09 Ry

     iteration #  5     ecut=    25.00 Ry     beta= 0.70
     Davidson diagonalization with overlap

---- Real-time Memory Report at c_bands before calling an iterative solver
           356 MiB given to the printing process from OS
             0 MiB allocation reported by mallinfo(arena+hblkhd)
           202 MiB available memory on the node where the printing process lives
------------------
     ethr =  7.27E-11,  avg # of iterations =  3.0

     negative rho (up, down):  4.551E-02 0.000E+00

     total cpu time spent up to now is       47.9 secs

     End of self-consistent calculation

          k =-0.5000-0.5000-0.5000 ( 57016 PWs)   bands (ev):

   -10.4297  -1.1420

     occupation numbers 
     1.0000   0.0000

     highest occupied, lowest unoccupied level (ev):   -10.4297   -1.1420

!    total energy              =      -2.31744882 Ry
     estimated scf accuracy    <          1.4E-10 Ry

     The total energy is the sum of the following terms:
     one-electron contribution =      -4.23016366 Ry
     hartree contribution      =       2.25171568 Ry
     xc contribution           =      -1.38935869 Ry
     ewald contribution        =       1.05035785 Ry

     convergence has been achieved in   5 iterations

     Forces acting on atoms (cartesian axes, Ry/au):

     atom    1 type  1   force =    -0.00887721    0.00000000    0.00000000
     atom    2 type  1   force =     0.00887721    0.00000000    0.00000000
     The non-local contrib.  to forces
     atom    1 type  1   force =     0.10842893    0.00000000    0.00000000
     atom    2 type  1   force =    -0.10870649    0.00000000    0.00000000
     The ionic contribution  to forces
     atom    1 type  1   force =    -1.01966753    0.00000000   -0.00000000
     atom    2 type  1   force =     1.01966753    0.00000000   -0.00000000
     The local contribution  to forces
     atom    1 type  1   force =     0.90220151    0.00000000    0.00000000
     atom    2 type  1   force =    -0.90225670    0.00000000    0.00000000
     The core correction contribution to forces
     atom    1 type  1   force =     0.00000000    0.00000000    0.00000000
     atom    2 type  1   force =     0.00000000    0.00000000    0.00000000
     The Hubbard contrib.    to forces
     atom    1 type  1   force =     0.00000000    0.00000000    0.00000000
     atom    2 type  1   force =     0.00000000    0.00000000    0.00000000
     The SCF correction term to forces
     atom    1 type  1   force =    -0.00001494    0.00000000    0.00000000
     atom    2 type  1   force =    -0.00000195   -0.00000000   -0.00000000

     Total force =     0.012554     Total SCF correction =     0.000015
     Energy error            =      4.1E-04 Ry
     Gradient error          =      8.9E-03 Ry/Bohr

     number of scf cycles    =  12
     number of bfgs steps    =   3

     energy             old  =      -2.3178557046 Ry
     energy             new  =      -2.3174488164 Ry

     CASE: energy            _new > energy            _old

     new trust radius        =       0.0027754038 bohr
     new conv_thr            =       0.0000000013 Ry


ATOMIC_POSITIONS (angstrom)
H             0.0443060050        0.0000000000        0.0000000000
H             0.7956939950        0.0000000000        0.0000000000



     Writing config-only to output data dir ./.save/
     NEW-OLD atomic charge density approx. for the potential

     negative rho (up, down):  4.552E-02 0.000E+00

     total cpu time spent up to now is       48.7 secs

     Self-consistent Calculation

     iteration #  1     ecut=    25.00 Ry     beta= 0.70
     Davidson diagonalization with overlap

---- Real-time Memory Report at c_bands before calling an iterative solver
           356 MiB given to the printing process from OS
             0 MiB allocation reported by mallinfo(arena+hblkhd)
           369 MiB available memory on the node where the printing process lives
------------------
     ethr =  1.00E-06,  avg # of iterations =  3.0

     negative rho (up, down):  4.509E-02 0.000E+00

     total cpu time spent up to now is       49.5 secs

     total energy              =      -2.31772334 Ry
     estimated scf accuracy    <       0.00003124 Ry

[...]

     total cpu time spent up to now is      187.6 secs

     total energy              =      -2.31746955 Ry
     estimated scf accuracy    <       0.00000061 Ry

     iteration #  3     ecut=    25.00 Ry     beta= 0.70
     Davidson diagonalization with overlap

---- Real-time Memory Report at c_bands before calling an iterative solver
           358 MiB given to the printing process from OS
             0 MiB allocation reported by mallinfo(arena+hblkhd)
           228 MiB available memory on the node where the printing process lives
------------------
     ethr =  3.07E-08,  avg # of iterations =  2.0

     negative rho (up, down):  4.551E-02 0.000E+00

     total cpu time spent up to now is      188.4 secs

     total energy              =      -2.31745616 Ry
     estimated scf accuracy    <       0.00000003 Ry

     iteration #  4     ecut=    25.00 Ry     beta= 0.70
     Davidson diagonalization with overlap

---- Real-time Memory Report at c_bands before calling an iterative solver
           358 MiB given to the printing process from OS
             0 MiB allocation reported by mallinfo(arena+hblkhd)
           214 MiB available memory on the node where the printing process lives
------------------
     ethr =  1.30E-09,  avg # of iterations =  2.0

     negative rho (up, down):  4.551E-02 0.000E+00

     total cpu time spent up to now is      189.1 secs

     total energy              =      -2.31745546 Ry
     estimated scf accuracy    <          1.4E-09 Ry

     iteration #  5     ecut=    25.00 Ry     beta= 0.70
     Davidson diagonalization with overlap

---- Real-time Memory Report at c_bands before calling an iterative solver
           358 MiB given to the printing process from OS
             0 MiB allocation reported by mallinfo(arena+hblkhd)
           200 MiB available memory on the node where the printing process lives
------------------
     ethr =  7.24E-11,  avg # of iterations =  3.0

     negative rho (up, down):  4.551E-02 0.000E+00

     total cpu time spent up to now is      189.9 secs

     End of self-consistent calculation

          k =-0.5000-0.5000-0.5000 ( 57016 PWs)   bands (ev):

   -10.4297  -1.1420

     occupation numbers 
     1.0000   0.0000

     highest occupied, lowest unoccupied level (ev):   -10.4297   -1.1420

!    total energy              =      -2.31744882 Ry
     estimated scf accuracy    <          1.4E-10 Ry

     The total energy is the sum of the following terms:
     one-electron contribution =      -4.23016366 Ry
     hartree contribution      =       2.25171567 Ry
     xc contribution           =      -1.38935869 Ry
     ewald contribution        =       1.05035785 Ry

     convergence has been achieved in   5 iterations

     Forces acting on atoms (cartesian axes, Ry/au):

     atom    1 type  1   force =    -0.00887721    0.00000000    0.00000000
     atom    2 type  1   force =     0.00887721    0.00000000    0.00000000
     The non-local contrib.  to forces
     atom    1 type  1   force =     0.10842893    0.00000000    0.00000000
     atom    2 type  1   force =    -0.10870649    0.00000000    0.00000000
     The ionic contribution  to forces
     atom    1 type  1   force =    -1.01966753    0.00000000   -0.00000000
     atom    2 type  1   force =     1.01966753    0.00000000   -0.00000000
     The local contribution  to forces
     atom    1 type  1   force =     0.90220151    0.00000000    0.00000000
     atom    2 type  1   force =    -0.90225669    0.00000000    0.00000000
     The core correction contribution to forces
     atom    1 type  1   force =     0.00000000    0.00000000    0.00000000
     atom    2 type  1   force =     0.00000000    0.00000000    0.00000000
     The Hubbard contrib.    to forces
     atom    1 type  1   force =     0.00000000    0.00000000    0.00000000
     atom    2 type  1   force =     0.00000000    0.00000000    0.00000000
     The SCF correction term to forces
     atom    1 type  1   force =    -0.00001494    0.00000000   -0.00000000
     atom    2 type  1   force =    -0.00000196    0.00000000   -0.00000000

     Total force =     0.012554     Total SCF correction =     0.000015
     Energy error            =      4.1E-04 Ry
     Gradient error          =      8.9E-03 Ry/Bohr

     number of scf cycles    =  48
     number of bfgs steps    =   3

     energy             old  =      -2.3178557046 Ry
     energy             new  =      -2.3174488164 Ry

     CASE: energy            _new > energy            _old

     new trust radius        =       0.0027754041 bohr
     new conv_thr            =       0.0000000013 Ry


ATOMIC_POSITIONS (angstrom)
H             0.0443060051        0.0000000000        0.0000000000
H             0.7956939949        0.0000000000        0.0000000000



     Writing config-only to output data dir ./.save/
     NEW-OLD atomic charge density approx. for the potential

     negative rho (up, down):  4.552E-02 0.000E+00

     total cpu time spent up to now is      190.7 secs

     Self-consistent Calculation

     iteration #  1     ecut=    25.00 Ry     beta= 0.70
     Davidson diagonalization with overlap

---- Real-time Memory Report at c_bands before calling an iterative solver
           358 MiB given to the printing process from OS
             0 MiB allocation reported by mallinfo(arena+hblkhd)
           367 MiB available memory on the node where the printing process lives
------------------
     ethr =  1.00E-06,  avg # of iterations =  3.0

     negative rho (up, down):  4.509E-02 0.000E+00

     total cpu time spent up to now is      191.5 secs

     total energy              =      -2.31772334 Ry
     estimated scf accuracy    <       0.00003124 Ry

     iteration #  2     ecut=    25.00 Ry     beta= 0.70
     Davidson diagonalization with overlap

---- Real-time Memory Report at c_bands before calling an iterative solver
           358 MiB given to the printing process from OS
             0 MiB allocation reported by mallinfo(arena+hblkhd)
           242 MiB available memory on the node where the printing process lives
------------------
     ethr =  1.56E-06,  avg # of iterations =  1.0

     negative rho (up, down):  4.499E-02 0.000E+00

     total cpu time spent up to now is      192.2 secs

     total energy              =      -2.31779078 Ry
     estimated scf accuracy    <       0.00000043 Ry

     iteration #  3     ecut=    25.00 Ry     beta= 0.70
     Davidson diagonalization with overlap

---- Real-time Memory Report at c_bands before calling an iterative solver
           358 MiB given to the printing process from OS
             0 MiB allocation reported by mallinfo(arena+hblkhd)
           228 MiB available memory on the node where the printing process lives
------------------
     ethr =  2.17E-08,  avg # of iterations =  2.0

     negative rho (up, down):  4.498E-02 0.000E+00

     total cpu time spent up to now is      193.0 secs

     total energy              =      -2.31780789 Ry
     estimated scf accuracy    <       0.00000002 Ry

     iteration #  4     ecut=    25.00 Ry     beta= 0.70
     Davidson diagonalization with overlap

---- Real-time Memory Report at c_bands before calling an iterative solver
           358 MiB given to the printing process from OS
             0 MiB allocation reported by mallinfo(arena+hblkhd)
           214 MiB available memory on the node where the printing process lives
------------------
     ethr =  1.18E-09,  avg # of iterations =  2.0

     negative rho (up, down):  4.498E-02 0.000E+00

     total cpu time spent up to now is      193.7 secs

     total energy              =      -2.31780580 Ry
     estimated scf accuracy    <          3.1E-09 Ry

     iteration #  5     ecut=    25.00 Ry     beta= 0.70
     Davidson diagonalization with overlap

---- Real-time Memory Report at c_bands before calling an iterative solver
           358 MiB given to the printing process from OS
             0 MiB allocation reported by mallinfo(arena+hblkhd)
           200 MiB available memory on the node where the printing process lives
------------------
     ethr =  1.56E-10,  avg # of iterations =  2.0

     negative rho (up, down):  4.498E-02 0.000E+00

     total cpu time spent up to now is      194.4 secs

     End of self-consistent calculation

          k =-0.5000-0.5000-0.5000 ( 57016 PWs)   bands (ev):

   -10.3776  -1.1288

     occupation numbers 
     1.0000   0.0000

     highest occupied, lowest unoccupied level (ev):   -10.3776   -1.1288

!    total energy              =      -2.31780897 Ry
     estimated scf accuracy    <          1.1E-10 Ry

     The total energy is the sum of the following terms:
     one-electron contribution =      -4.20324739 Ry
     hartree contribution      =       2.23754762 Ry
     xc contribution           =      -1.38264920 Ry
     ewald contribution        =       1.03054000 Ry

     convergence has been achieved in   5 iterations

     Forces acting on atoms (cartesian axes, Ry/au):

     atom    1 type  1   force =     0.00806411    0.00000000    0.00000000
     atom    2 type  1   force =    -0.00806411    0.00000000    0.00000000
     The non-local contrib.  to forces
     atom    1 type  1   force =     0.10814032    0.00000000    0.00000000
     atom    2 type  1   force =    -0.10827972    0.00000000    0.00000000
     The ionic contribution  to forces
     atom    1 type  1   force =    -0.99153843    0.00000000   -0.00000000
     atom    2 type  1   force =     0.99153843   -0.00000000   -0.00000000
     The local contribution  to forces
     atom    1 type  1   force =     0.89135254    0.00000000    0.00000000
     atom    2 type  1   force =    -0.89140546    0.00000000    0.00000000
     The core correction contribution to forces
     atom    1 type  1   force =     0.00000000    0.00000000    0.00000000
     atom    2 type  1   force =     0.00000000    0.00000000    0.00000000
     The Hubbard contrib.    to forces
     atom    1 type  1   force =     0.00000000    0.00000000    0.00000000
     atom    2 type  1   force =     0.00000000    0.00000000    0.00000000
     The SCF correction term to forces
     atom    1 type  1   force =     0.00004322    0.00000000    0.00000000
     atom    2 type  1   force =     0.00001618    0.00000000   -0.00000000

     Total force =     0.011404     Total SCF correction =     0.000046
     Energy error            =      4.7E-05 Ry
     Gradient error          =      8.1E-03 Ry/Bohr

     number of scf cycles    =  49
     number of bfgs steps    =   3

     energy             old  =      -2.3178557046 Ry
     energy             new  =      -2.3178089694 Ry

     CASE: energy            _new > energy            _old

     new trust radius        =       0.0008326424 bohr
     new conv_thr            =       0.0000000013 Ry


ATOMIC_POSITIONS (angstrom)
H             0.0432779399        0.0000000000        0.0000000000
H             0.7967220601        0.0000000000        0.0000000000



     Writing config-only to output data dir ./.save/
     NEW-OLD atomic charge density approx. for the potential

     negative rho (up, down):  4.498E-02 0.000E+00

     total cpu time spent up to now is      195.2 secs

     Self-consistent Calculation

     iteration #  1     ecut=    25.00 Ry     beta= 0.70
     Davidson diagonalization with overlap

---- Real-time Memory Report at c_bands before calling an iterative solver
           358 MiB given to the printing process from OS
             0 MiB allocation reported by mallinfo(arena+hblkhd)
           367 MiB available memory on the node where the printing process lives
------------------
     ethr =  1.00E-06,  avg # of iterations =  2.0

     Threshold (ethr) on eigenvalues was too large:
     Diagonalizing with lowered threshold

     Davidson diagonalization with overlap

---- Real-time Memory Report at c_bands before calling an iterative solver
           358 MiB given to the printing process from OS
             0 MiB allocation reported by mallinfo(arena+hblkhd)
           367 MiB available memory on the node where the printing process lives
------------------
     ethr =  5.44E-08,  avg # of iterations =  1.0

     negative rho (up, down):  4.489E-02 0.000E+00

     total cpu time spent up to now is      196.2 secs

     total energy              =      -2.31782905 Ry
     estimated scf accuracy    <       0.00000115 Ry

     iteration #  2     ecut=    25.00 Ry     beta= 0.70
     Davidson diagonalization with overlap

---- Real-time Memory Report at c_bands before calling an iterative solver
           358 MiB given to the printing process from OS
             0 MiB allocation reported by mallinfo(arena+hblkhd)
           242 MiB available memory on the node where the printing process lives
------------------
     ethr =  5.76E-08,  avg # of iterations =  2.0

     negative rho (up, down):  4.488E-02 0.000E+00

     total cpu time spent up to now is      197.0 secs

     total energy              =      -2.31783487 Ry
     estimated scf accuracy    <       0.00000002 Ry

     iteration #  3     ecut=    25.00 Ry     beta= 0.70
     Davidson diagonalization with overlap

---- Real-time Memory Report at c_bands before calling an iterative solver
           358 MiB given to the printing process from OS
             0 MiB allocation reported by mallinfo(arena+hblkhd)
           228 MiB available memory on the node where the printing process lives
------------------
     ethr =  8.04E-10,  avg # of iterations =  2.0

     negative rho (up, down):  4.487E-02 0.000E+00

     total cpu time spent up to now is      197.7 secs

     End of self-consistent calculation

          k =-0.5000-0.5000-0.5000 ( 57016 PWs)   bands (ev):

   -10.3674  -1.1237

     occupation numbers 
     1.0000   0.0000

     highest occupied, lowest unoccupied level (ev):   -10.3674   -1.1237

!    total energy              =      -2.31783966 Ry
     estimated scf accuracy    <          6.8E-10 Ry

     The total energy is the sum of the following terms:
     one-electron contribution =      -4.19800565 Ry
     hartree contribution      =       2.23482006 Ry
     xc contribution           =      -1.38135194 Ry
     ewald contribution        =       1.02669787 Ry

     convergence has been achieved in   3 iterations

     Forces acting on atoms (cartesian axes, Ry/au):

     atom    1 type  1   force =     0.01120465    0.00000000    0.00000000
     atom    2 type  1   force =    -0.01120465    0.00000000    0.00000000
     The non-local contrib.  to forces
     atom    1 type  1   force =     0.10798695    0.00000000    0.00000000
     atom    2 type  1   force =    -0.10822472    0.00000000    0.00000000
     The ionic contribution  to forces
     atom    1 type  1   force =    -0.98613040   -0.00000000   -0.00000000
     atom    2 type  1   force =     0.98613040    0.00000000   -0.00000000
     The local contribution  to forces
     atom    1 type  1   force =     0.88923684    0.00000000    0.00000000
     atom    2 type  1   force =    -0.88928870    0.00000000    0.00000000
     The core correction contribution to forces
     atom    1 type  1   force =     0.00000000    0.00000000    0.00000000
     atom    2 type  1   force =     0.00000000    0.00000000    0.00000000
     The Hubbard contrib.    to forces
     atom    1 type  1   force =     0.00000000    0.00000000    0.00000000
     atom    2 type  1   force =     0.00000000    0.00000000    0.00000000
     The SCF correction term to forces
     atom    1 type  1   force =    -0.00006464    0.00000000    0.00000000
     atom    2 type  1   force =     0.00000245    0.00000000   -0.00000000

     Total force =     0.015846     Total SCF correction =     0.000065
     Energy error            =      1.6E-05 Ry
     Gradient error          =      1.1E-02 Ry/Bohr

     number of scf cycles    =  50
     number of bfgs steps    =   3

     energy             old  =      -2.3178557046 Ry
     energy             new  =      -2.3178396604 Ry

     CASE: energy            _new > energy            _old

     new trust radius        =       0.0002361677 bohr

     The maximum number of steps has been reached.

     End of BFGS Geometry Optimization

ATOMIC_POSITIONS (angstrom)
H             0.0429622991        0.0000000000        0.0000000000
H             0.7970377009        0.0000000000        0.0000000000



     Writing config-only to output data dir ./.save/
     NEW-OLD atomic charge density approx. for the potential

     negative rho (up, down):  4.487E-02 0.000E+00

     Writing all to output data dir ./.save/

     init_run     :      0.75s CPU      0.77s WALL (       1 calls)
     electrons    :    157.60s CPU    159.51s WALL (      50 calls)
     update_pot   :     24.42s CPU     24.99s WALL (      50 calls)
     forces       :      9.51s CPU      9.70s WALL (      50 calls)

     Called by init_run:
     wfcinit      :      0.07s CPU      0.07s WALL (       1 calls)
     wfcinit:atom :      0.00s CPU      0.00s WALL (       1 calls)
     wfcinit:wfcr :      0.06s CPU      0.06s WALL (       1 calls)
     potinit      :      0.43s CPU      0.45s WALL (       1 calls)
     hinit0       :      0.04s CPU      0.04s WALL (       1 calls)

     Called by electrons:
     c_bands      :     34.65s CPU     34.68s WALL (     223 calls)
     sum_band     :     22.38s CPU     22.76s WALL (     223 calls)
     v_of_rho     :    103.02s CPU    103.64s WALL (     251 calls)
     v_h          :      6.36s CPU      6.37s WALL (     251 calls)
     v_xc         :     96.66s CPU     97.27s WALL (     251 calls)
     newd         :      7.97s CPU      7.98s WALL (     251 calls)
     mix_rho      :      8.09s CPU      8.98s WALL (     223 calls)

     Called by c_bands:
     init_us_2    :      0.67s CPU      0.68s WALL (     447 calls)
     init_us_2:cp :      0.67s CPU      0.68s WALL (     447 calls)
     cegterg      :     34.19s CPU     34.23s WALL (     223 calls)

     Called by sum_band:
     sum_band:wei :      0.00s CPU      0.00s WALL (     223 calls)
     sum_band:loo :      6.58s CPU      6.60s WALL (     223 calls)
     sum_band:buf :      0.00s CPU      0.00s WALL (     223 calls)
     sum_band:ini :      0.34s CPU      0.35s WALL (     223 calls)
     sum_band:cal :      0.09s CPU      0.09s WALL (     223 calls)
     sum_band:bec :      0.00s CPU      0.00s WALL (     223 calls)
     addusdens    :      2.09s CPU      2.33s WALL (     223 calls)
     addusd:skk   :      0.57s CPU      0.68s WALL (     223 calls)
     addusd:dgemm :      0.42s CPU      0.45s WALL (     223 calls)
     addusd:qvan2 :      0.56s CPU      0.64s WALL (     223 calls)

     Called by *egterg:
     cdiaghg      :      0.01s CPU      0.01s WALL (     618 calls)
     cegterg:over :      0.43s CPU      0.44s WALL (     467 calls)
     cegterg:upda :      0.31s CPU      0.31s WALL (     467 calls)
     cegterg:last :      0.61s CPU      0.61s WALL (     436 calls)
     h_psi        :     32.10s CPU     32.13s WALL (     691 calls)
     s_psi        :      0.19s CPU      0.19s WALL (     691 calls)
     g_psi        :      0.14s CPU      0.14s WALL (     467 calls)

     Called by h_psi:
     h_psi:calbec :      0.26s CPU      0.26s WALL (     691 calls)
     vloc_psi     :     31.53s CPU     31.55s WALL (     691 calls)
     add_vuspsi   :      0.20s CPU      0.21s WALL (     691 calls)

     General routines
     calbec       :      0.41s CPU      0.41s WALL (    1114 calls)
     fft          :     57.08s CPU     57.11s WALL (    2934 calls)
     ffts         :      4.47s CPU      4.48s WALL (     223 calls)
     fftw         :     33.57s CPU     33.59s WALL (    2790 calls)


     PWSCF        :   3m15.85s CPU   3m18.57s WALL


   This run was terminated on:   4: 3:29  28Feb2022            

=------------------------------------------------------------------------------=
   JOB DONE.
=------------------------------------------------------------------------------=
