
     Program PWSCF v.7.0 starts on 28Feb2022 at 22:19:34 

     This program is part of the open-source Quantum ESPRESSO suite
     for quantum simulation of materials; please cite
         "P. Giannozzi et al., J. Phys.:Condens. Matter 21 395502 (2009);
         "P. Giannozzi et al., J. Phys.:Condens. Matter 29 465901 (2017);
         "P. Giannozzi et al., J. Chem. Phys. 152 154105 (2020);
          URL http://www.quantum-espresso.org", 
     in publications or presentations arising from this work. More details at
     http://www.quantum-espresso.org/quote

     Serial version
     1284 MiB available memory on the printing compute node when the environment starts

     Waiting for input...
     Reading input from standard input

     Current dimensions of program PWSCF are:
     Max number of different atomic species (ntypx) = 10
     Max number of k-points (npk) =  40000
     Max angular momentum in pseudopotentials (lmaxx) =  4

    ============================================================
    |  pseudopotential report for atomic species:  1           |
    |        pseudo potential version   7   3   2              |
    ------------------------------------------------------------
    |  hydrogen            PBE                  exchange-corr  |
    |  z =   1.    zv( 1) =   1.    exfact =   5.00000         |
    |  ifpcor =  0           atomic energy =  -0.91772 Ry      |
    |  index    orbital      occupation    energy              |
    |    1        100           1.00       -0.48               |
    |  rinner =  0.5000                                        |
    |    new generation scheme:                                |
    |    nbeta =  1     kkbeta =  271     rcloc =    0.6000    |
    |    ibeta    l     epsilon   rcut                         |
    |      1       0      -0.48   0.80                         |
    ============================================================

     IMPORTANT: XC functional enforced from input :
     Exchange-correlation= BLYP
                           (   1   3   1   3   0   0   0)
     Any further DFT definition will be discarded
     Please, verify this is what you really want


     G-vector sticks info
     --------------------
     sticks:   dense  smooth     PW     G-vecs:    dense   smooth      PW
     Sum        2869    2869    793               115313   115313   17071

     Using Slab Decomposition



     bravais-lattice index     =            1
     lattice parameter (alat)  =      30.0000  a.u.
     unit-cell volume          =   27000.0000 (a.u.)^3
     number of atoms/cell      =            2
     number of atomic types    =            1
     number of electrons       =         2.00
     number of Kohn-Sham states=            2
     kinetic-energy cutoff     =      10.0000  Ry
     charge density cutoff     =      40.0000  Ry
     scf convergence threshold =      1.0E-08
     mixing beta               =       0.7000
     number of iterations used =            8  plain     mixing
     Exchange-correlation= BLYP
                           (   1   3   1   3   0   0   0)

     celldm(1)=  30.000000  celldm(2)=   0.000000  celldm(3)=   0.000000
     celldm(4)=   0.000000  celldm(5)=   0.000000  celldm(6)=   0.000000

     crystal axes: (cart. coord. in units of alat)
               a(1) = (   1.000000   0.000000   0.000000 )  
               a(2) = (   0.000000   1.000000   0.000000 )  
               a(3) = (   0.000000   0.000000   1.000000 )  

     reciprocal axes: (cart. coord. in units 2 pi/alat)
               b(1) = (  1.000000  0.000000  0.000000 )  
               b(2) = (  0.000000  1.000000  0.000000 )  
               b(3) = (  0.000000  0.000000  1.000000 )  


     PseudoPot. # 1 for hy read from file:
     /root/q-e/pseudo/H_US.van
     MD5 check sum: a9a9bfe98ff56cf4de197d71fc46bb44
     Pseudo is Ultrasoft, Zval =  1.0
     Generated by Vanderbilt code, v. 7.3.2
     Using radial grid of  399 points,  1 beta functions with: 
                l(1) =   0
     Q(r) pseudized with  8 coefficients,  rinner =    0.500

     atomic species   valence    mass     pseudopotential
        H              1.00     1.00784     hy( 1.00)

      8 Sym. Ops. (no inversion) found


                                    s                        frac. trans.

      isym =  1     identity                                     

 cryst.   s( 1) = (     1          0          0      )
                  (     0          1          0      )
                  (     0          0          1      )

 cart.    s( 1) = (  1.0000000  0.0000000  0.0000000 )
                  (  0.0000000  1.0000000  0.0000000 )
                  (  0.0000000  0.0000000  1.0000000 )


      isym =  2     180 deg rotation - cart. axis [1,0,0]        

 cryst.   s( 2) = (     1          0          0      )
                  (     0         -1          0      )
                  (     0          0         -1      )

 cart.    s( 2) = (  1.0000000  0.0000000  0.0000000 )
                  (  0.0000000 -1.0000000  0.0000000 )
                  (  0.0000000  0.0000000 -1.0000000 )


      isym =  3      90 deg rotation - cart. axis [-1,0,0]       

 cryst.   s( 3) = (     1          0          0      )
                  (     0          0         -1      )
                  (     0          1          0      )

 cart.    s( 3) = (  1.0000000  0.0000000  0.0000000 )
                  (  0.0000000  0.0000000  1.0000000 )
                  (  0.0000000 -1.0000000  0.0000000 )


      isym =  4      90 deg rotation - cart. axis [1,0,0]        

 cryst.   s( 4) = (     1          0          0      )
                  (     0          0          1      )
                  (     0         -1          0      )

 cart.    s( 4) = (  1.0000000  0.0000000  0.0000000 )
                  (  0.0000000  0.0000000 -1.0000000 )
                  (  0.0000000  1.0000000  0.0000000 )


      isym =  5     inv. 180 deg rotation - cart. axis [0,0,1]   

 cryst.   s( 5) = (     1          0          0      )
                  (     0          1          0      )
                  (     0          0         -1      )

 cart.    s( 5) = (  1.0000000  0.0000000  0.0000000 )
                  (  0.0000000  1.0000000  0.0000000 )
                  (  0.0000000  0.0000000 -1.0000000 )


      isym =  6     inv. 180 deg rotation - cart. axis [0,1,0]   

 cryst.   s( 6) = (     1          0          0      )
                  (     0         -1          0      )
                  (     0          0          1      )

 cart.    s( 6) = (  1.0000000  0.0000000  0.0000000 )
                  (  0.0000000 -1.0000000  0.0000000 )
                  (  0.0000000  0.0000000  1.0000000 )


      isym =  7     inv. 180 deg rotation - cart. axis [0,1,1]   

 cryst.   s( 7) = (     1          0          0      )
                  (     0          0         -1      )
                  (     0         -1          0      )

 cart.    s( 7) = (  1.0000000  0.0000000  0.0000000 )
                  (  0.0000000  0.0000000 -1.0000000 )
                  (  0.0000000 -1.0000000  0.0000000 )


      isym =  8     inv. 180 deg rotation - cart. axis [0,1,-1]  

 cryst.   s( 8) = (     1          0          0      )
                  (     0          0          1      )
                  (     0          1          0      )

 cart.    s( 8) = (  1.0000000  0.0000000  0.0000000 )
                  (  0.0000000  0.0000000  1.0000000 )
                  (  0.0000000  1.0000000  0.0000000 )


     point group C_4v (4mm) 
     there are  5 classes
     the character table:

       E     2C4   C2    2s_v  2s_d 
A_1    1.00  1.00  1.00  1.00  1.00
A_2    1.00  1.00  1.00 -1.00 -1.00
B_1    1.00 -1.00  1.00  1.00 -1.00
B_2    1.00 -1.00  1.00 -1.00  1.00
E      2.00  0.00 -2.00  0.00  0.00

     the symmetry operations in each class and the name of the first element:

     E        1
          identity                                               
     2C4      3    4
           90 deg rotation - cart. axis [-1,0,0]                 
     C2       2
          180 deg rotation - cart. axis [1,0,0]                  
     2s_v     5    6
          inv. 180 deg rotation - cart. axis [0,0,1]             
     2s_d     7    8
          inv. 180 deg rotation - cart. axis [0,1,1]             

   Cartesian axes

     site n.     atom                  positions (alat units)
         1           H   tau(   1) = (   0.0000000   0.0000000   0.0000000  )
         2           H   tau(   2) = (   0.2834589   0.0000000   0.0000000  )

   Crystallographic axes

     site n.     atom                  positions (cryst. coord.)
         1           H   tau(   1) = (  0.0000000  0.0000000  0.0000000  )
         2           H   tau(   2) = (  0.2834589  0.0000000  0.0000000  )

     number of k points=     1
                       cart. coord. in units 2pi/alat
        k(    1) = (  -0.5000000  -0.5000000  -0.5000000), wk =   2.0000000

                       cryst. coord.
        k(    1) = (  -0.5000000  -0.5000000  -0.5000000), wk =   2.0000000

     Dense  grid:   115313 G-vectors     FFT dimensions: (  64,  64,  64)

     Dynamical RAM for                 wfc:       0.44 MB

     Dynamical RAM for     wfc (w. buffer):       0.44 MB

     Dynamical RAM for           str. fact:       1.76 MB

     Dynamical RAM for           local pot:       0.00 MB

     Dynamical RAM for          nlocal pot:       0.44 MB

     Dynamical RAM for                qrad:       0.00 MB

     Dynamical RAM for          rho,v,vnew:      11.28 MB

     Dynamical RAM for               rhoin:       3.76 MB

     Dynamical RAM for            rho*nmix:      28.15 MB

     Dynamical RAM for           G-vectors:       7.48 MB

     Dynamical RAM for          h,s,v(r/c):       0.00 MB

     Dynamical RAM for          <psi|beta>:       0.00 MB

     Dynamical RAM for                 psi:       0.88 MB

     Dynamical RAM for                hpsi:       0.88 MB

     Dynamical RAM for                spsi:       0.88 MB

     Dynamical RAM for      wfcinit/wfcrot:       0.88 MB

     Dynamical RAM for           addusdens:      10.56 MB

     Estimated static dynamical RAM per process >      38.68 MB

     Estimated max dynamical RAM per process >      77.39 MB

     Initial potential from superposition of free atoms

     starting charge       2.0000, renormalised to       2.0000

     negative rho (up, down):  2.084E-01 0.000E+00
     Starting wfcs are    2 randomized atomic wfcs

     total cpu time spent up to now is        0.2 secs

     Self-consistent Calculation

     iteration #  1     ecut=    10.00 Ry     beta= 0.70
     Davidson diagonalization with overlap

---- Real-time Memory Report at c_bands before calling an iterative solver
            81 MiB given to the printing process from OS
             0 MiB allocation reported by mallinfo(arena+hblkhd)
          1236 MiB available memory on the node where the printing process lives
------------------
     ethr =  1.00E-02,  avg # of iterations =  1.0

     Threshold (ethr) on eigenvalues was too large:
     Diagonalizing with lowered threshold

     Davidson diagonalization with overlap

---- Real-time Memory Report at c_bands before calling an iterative solver
            81 MiB given to the printing process from OS
             0 MiB allocation reported by mallinfo(arena+hblkhd)
          1229 MiB available memory on the node where the printing process lives
------------------
     ethr =  4.51E-05,  avg # of iterations =  2.0

     negative rho (up, down):  1.793E-01 0.000E+00

     total cpu time spent up to now is        0.5 secs

     total energy              =      -1.79209341 Ry
     estimated scf accuracy    <       0.00080415 Ry

     iteration #  2     ecut=    10.00 Ry     beta= 0.70
     Davidson diagonalization with overlap

---- Real-time Memory Report at c_bands before calling an iterative solver
           101 MiB given to the printing process from OS
             0 MiB allocation reported by mallinfo(arena+hblkhd)
          1196 MiB available memory on the node where the printing process lives
------------------
     ethr =  4.02E-05,  avg # of iterations =  1.0

     negative rho (up, down):  1.792E-01 0.000E+00

     total cpu time spent up to now is        0.7 secs

     total energy              =      -1.78899007 Ry
     estimated scf accuracy    <       0.66692047 Ry

     iteration #  3     ecut=    10.00 Ry     beta= 0.70
     Davidson diagonalization with overlap

---- Real-time Memory Report at c_bands before calling an iterative solver
           105 MiB given to the printing process from OS
             0 MiB allocation reported by mallinfo(arena+hblkhd)
          1192 MiB available memory on the node where the printing process lives
------------------
     ethr =  4.02E-05,  avg # of iterations =  1.0

     negative rho (up, down):  1.688E-01 0.000E+00

     total cpu time spent up to now is        0.9 secs

     total energy              =      -1.79806276 Ry
     estimated scf accuracy    <       0.00990241 Ry

     iteration #  4     ecut=    10.00 Ry     beta= 0.70
     Davidson diagonalization with overlap

---- Real-time Memory Report at c_bands before calling an iterative solver
           108 MiB given to the printing process from OS
             0 MiB allocation reported by mallinfo(arena+hblkhd)
          1189 MiB available memory on the node where the printing process lives
------------------
     ethr =  4.02E-05,  avg # of iterations =  1.0

     negative rho (up, down):  1.679E-01 0.000E+00

     total cpu time spent up to now is        1.1 secs

     total energy              =      -1.79861067 Ry
     estimated scf accuracy    <       0.00666455 Ry

     iteration #  5     ecut=    10.00 Ry     beta= 0.70
     Davidson diagonalization with overlap

---- Real-time Memory Report at c_bands before calling an iterative solver
           112 MiB given to the printing process from OS
             0 MiB allocation reported by mallinfo(arena+hblkhd)
          1185 MiB available memory on the node where the printing process lives
------------------
     ethr =  4.02E-05,  avg # of iterations =  1.0

     negative rho (up, down):  1.679E-01 0.000E+00

     total cpu time spent up to now is        1.3 secs

     total energy              =      -1.79865901 Ry
     estimated scf accuracy    <       0.00040973 Ry

     iteration #  6     ecut=    10.00 Ry     beta= 0.70
     Davidson diagonalization with overlap

---- Real-time Memory Report at c_bands before calling an iterative solver
           116 MiB given to the printing process from OS
             0 MiB allocation reported by mallinfo(arena+hblkhd)
          1182 MiB available memory on the node where the printing process lives
------------------
     ethr =  2.05E-05,  avg # of iterations =  1.0

     negative rho (up, down):  1.679E-01 0.000E+00

     total cpu time spent up to now is        1.5 secs

     total energy              =      -1.79868674 Ry
     estimated scf accuracy    <       0.00011616 Ry

     iteration #  7     ecut=    10.00 Ry     beta= 0.70
     Davidson diagonalization with overlap

---- Real-time Memory Report at c_bands before calling an iterative solver
           119 MiB given to the printing process from OS
             0 MiB allocation reported by mallinfo(arena+hblkhd)
          1178 MiB available memory on the node where the printing process lives
------------------
     ethr =  5.81E-06,  avg # of iterations =  1.0

     negative rho (up, down):  1.679E-01 0.000E+00

     total cpu time spent up to now is        1.7 secs

     total energy              =      -1.79869980 Ry
     estimated scf accuracy    <       0.00036209 Ry

     iteration #  8     ecut=    10.00 Ry     beta= 0.70
     Davidson diagonalization with overlap

---- Real-time Memory Report at c_bands before calling an iterative solver
           123 MiB given to the printing process from OS
             0 MiB allocation reported by mallinfo(arena+hblkhd)
          1175 MiB available memory on the node where the printing process lives
------------------
     ethr =  5.81E-06,  avg # of iterations =  1.0

     negative rho (up, down):  1.679E-01 0.000E+00

     total cpu time spent up to now is        1.9 secs

     total energy              =      -1.79871361 Ry
     estimated scf accuracy    <       0.00002568 Ry

     iteration #  9     ecut=    10.00 Ry     beta= 0.70
     Davidson diagonalization with overlap

---- Real-time Memory Report at c_bands before calling an iterative solver
           126 MiB given to the printing process from OS
             0 MiB allocation reported by mallinfo(arena+hblkhd)
          1171 MiB available memory on the node where the printing process lives
------------------
     ethr =  1.28E-06,  avg # of iterations =  2.0

     negative rho (up, down):  1.679E-01 0.000E+00

     total cpu time spent up to now is        2.1 secs

     total energy              =      -1.79868827 Ry
     estimated scf accuracy    <       0.00000231 Ry

     iteration # 10     ecut=    10.00 Ry     beta= 0.70
     Davidson diagonalization with overlap

---- Real-time Memory Report at c_bands before calling an iterative solver
           130 MiB given to the printing process from OS
             0 MiB allocation reported by mallinfo(arena+hblkhd)
          1168 MiB available memory on the node where the printing process lives
------------------
     ethr =  1.15E-07,  avg # of iterations =  2.0

     negative rho (up, down):  1.679E-01 0.000E+00

     total cpu time spent up to now is        2.4 secs

     total energy              =      -1.79869304 Ry
     estimated scf accuracy    <       0.00005737 Ry

     iteration # 11     ecut=    10.00 Ry     beta= 0.70
     Davidson diagonalization with overlap

---- Real-time Memory Report at c_bands before calling an iterative solver
           130 MiB given to the printing process from OS
             0 MiB allocation reported by mallinfo(arena+hblkhd)
          1168 MiB available memory on the node where the printing process lives
------------------
     ethr =  1.15E-07,  avg # of iterations =  1.0

     negative rho (up, down):  1.679E-01 0.000E+00

     total cpu time spent up to now is        2.6 secs

     total energy              =      -1.79869264 Ry
     estimated scf accuracy    <       0.00005137 Ry

     iteration # 12     ecut=    10.00 Ry     beta= 0.70
     Davidson diagonalization with overlap

---- Real-time Memory Report at c_bands before calling an iterative solver
           130 MiB given to the printing process from OS
             0 MiB allocation reported by mallinfo(arena+hblkhd)
          1168 MiB available memory on the node where the printing process lives
------------------
     ethr =  1.15E-07,  avg # of iterations =  2.0

     negative rho (up, down):  1.679E-01 0.000E+00

     total cpu time spent up to now is        2.8 secs

     total energy              =      -1.79869551 Ry
     estimated scf accuracy    <       0.00000271 Ry

     iteration # 13     ecut=    10.00 Ry     beta= 0.70
     Davidson diagonalization with overlap

---- Real-time Memory Report at c_bands before calling an iterative solver
           130 MiB given to the printing process from OS
             0 MiB allocation reported by mallinfo(arena+hblkhd)
          1168 MiB available memory on the node where the printing process lives
------------------
     ethr =  1.15E-07,  avg # of iterations =  2.0

     negative rho (up, down):  1.679E-01 0.000E+00

     total cpu time spent up to now is        3.0 secs

     total energy              =      -1.79869737 Ry
     estimated scf accuracy    <       0.00000113 Ry

     iteration # 14     ecut=    10.00 Ry     beta= 0.70
     Davidson diagonalization with overlap

---- Real-time Memory Report at c_bands before calling an iterative solver
           130 MiB given to the printing process from OS
             0 MiB allocation reported by mallinfo(arena+hblkhd)
          1168 MiB available memory on the node where the printing process lives
------------------
     ethr =  5.64E-08,  avg # of iterations =  1.0

     negative rho (up, down):  1.679E-01 0.000E+00

     total cpu time spent up to now is        3.2 secs

     total energy              =      -1.79867959 Ry
     estimated scf accuracy    <       0.00000125 Ry

     iteration # 15     ecut=    10.00 Ry     beta= 0.70
     Davidson diagonalization with overlap

---- Real-time Memory Report at c_bands before calling an iterative solver
           130 MiB given to the printing process from OS
             0 MiB allocation reported by mallinfo(arena+hblkhd)
          1168 MiB available memory on the node where the printing process lives
------------------
     ethr =  5.64E-08,  avg # of iterations =  2.0

     negative rho (up, down):  1.679E-01 0.000E+00

     total cpu time spent up to now is        3.4 secs

     total energy              =      -1.79868342 Ry
     estimated scf accuracy    <       0.00000657 Ry

     iteration # 16     ecut=    10.00 Ry     beta= 0.70
     Davidson diagonalization with overlap

---- Real-time Memory Report at c_bands before calling an iterative solver
           130 MiB given to the printing process from OS
             0 MiB allocation reported by mallinfo(arena+hblkhd)
          1168 MiB available memory on the node where the printing process lives
------------------
     ethr =  5.64E-08,  avg # of iterations =  1.0

     negative rho (up, down):  1.679E-01 0.000E+00

     total cpu time spent up to now is        3.6 secs

     total energy              =      -1.79869051 Ry
     estimated scf accuracy    <       0.00000104 Ry

     iteration # 17     ecut=    10.00 Ry     beta= 0.70
     Davidson diagonalization with overlap

---- Real-time Memory Report at c_bands before calling an iterative solver
           130 MiB given to the printing process from OS
             0 MiB allocation reported by mallinfo(arena+hblkhd)
          1168 MiB available memory on the node where the printing process lives
------------------
     ethr =  5.20E-08,  avg # of iterations =  2.0

     negative rho (up, down):  1.679E-01 0.000E+00

     total cpu time spent up to now is        3.9 secs

     total energy              =      -1.79869225 Ry
     estimated scf accuracy    <       0.00000467 Ry

     iteration # 18     ecut=    10.00 Ry     beta= 0.70
     Davidson diagonalization with overlap

---- Real-time Memory Report at c_bands before calling an iterative solver
           130 MiB given to the printing process from OS
             0 MiB allocation reported by mallinfo(arena+hblkhd)
          1168 MiB available memory on the node where the printing process lives
------------------
     ethr =  5.20E-08,  avg # of iterations =  1.0

     negative rho (up, down):  1.679E-01 0.000E+00

     total cpu time spent up to now is        4.1 secs

     total energy              =      -1.79868898 Ry
     estimated scf accuracy    <       0.00000693 Ry

     iteration # 19     ecut=    10.00 Ry     beta= 0.70
     Davidson diagonalization with overlap

---- Real-time Memory Report at c_bands before calling an iterative solver
           130 MiB given to the printing process from OS
             0 MiB allocation reported by mallinfo(arena+hblkhd)
          1168 MiB available memory on the node where the printing process lives
------------------
     ethr =  5.20E-08,  avg # of iterations =  2.0

     negative rho (up, down):  1.679E-01 0.000E+00

     total cpu time spent up to now is        4.3 secs

     total energy              =      -1.79869350 Ry
     estimated scf accuracy    <       0.00002081 Ry

     iteration # 20     ecut=    10.00 Ry     beta= 0.70
     Davidson diagonalization with overlap

---- Real-time Memory Report at c_bands before calling an iterative solver
           130 MiB given to the printing process from OS
             0 MiB allocation reported by mallinfo(arena+hblkhd)
          1168 MiB available memory on the node where the printing process lives
------------------
     ethr =  5.20E-08,  avg # of iterations =  2.0

     negative rho (up, down):  1.679E-01 0.000E+00

     total cpu time spent up to now is        4.5 secs

     total energy              =      -1.79869301 Ry
     estimated scf accuracy    <       0.00001350 Ry

     iteration # 21     ecut=    10.00 Ry     beta= 0.70
     Davidson diagonalization with overlap

---- Real-time Memory Report at c_bands before calling an iterative solver
           130 MiB given to the printing process from OS
             0 MiB allocation reported by mallinfo(arena+hblkhd)
          1168 MiB available memory on the node where the printing process lives
------------------
     ethr =  5.20E-08,  avg # of iterations =  2.0

     negative rho (up, down):  1.679E-01 0.000E+00

     total cpu time spent up to now is        4.7 secs

     total energy              =      -1.79870030 Ry
     estimated scf accuracy    <       0.00001533 Ry

     iteration # 22     ecut=    10.00 Ry     beta= 0.70
     Davidson diagonalization with overlap

---- Real-time Memory Report at c_bands before calling an iterative solver
           130 MiB given to the printing process from OS
             0 MiB allocation reported by mallinfo(arena+hblkhd)
          1168 MiB available memory on the node where the printing process lives
------------------
     ethr =  5.20E-08,  avg # of iterations =  2.0

     negative rho (up, down):  1.679E-01 0.000E+00

     total cpu time spent up to now is        4.9 secs

     total energy              =      -1.79868581 Ry
     estimated scf accuracy    <       0.00003037 Ry

     iteration # 23     ecut=    10.00 Ry     beta= 0.70
     Davidson diagonalization with overlap

---- Real-time Memory Report at c_bands before calling an iterative solver
           130 MiB given to the printing process from OS
             0 MiB allocation reported by mallinfo(arena+hblkhd)
          1168 MiB available memory on the node where the printing process lives
------------------
     ethr =  5.20E-08,  avg # of iterations =  2.0

     negative rho (up, down):  1.679E-01 0.000E+00

     total cpu time spent up to now is        5.1 secs

     total energy              =      -1.79867795 Ry
     estimated scf accuracy    <       0.00003865 Ry

     iteration # 24     ecut=    10.00 Ry     beta= 0.70
     Davidson diagonalization with overlap

---- Real-time Memory Report at c_bands before calling an iterative solver
           130 MiB given to the printing process from OS
             0 MiB allocation reported by mallinfo(arena+hblkhd)
          1168 MiB available memory on the node where the printing process lives
------------------
     ethr =  5.20E-08,  avg # of iterations =  2.0

     negative rho (up, down):  1.679E-01 0.000E+00

     total cpu time spent up to now is        5.4 secs

     total energy              =      -1.79867226 Ry
     estimated scf accuracy    <       0.00001171 Ry

     iteration # 25     ecut=    10.00 Ry     beta= 0.70
     Davidson diagonalization with overlap

---- Real-time Memory Report at c_bands before calling an iterative solver
           130 MiB given to the printing process from OS
             0 MiB allocation reported by mallinfo(arena+hblkhd)
          1168 MiB available memory on the node where the printing process lives
------------------
     ethr =  5.20E-08,  avg # of iterations =  1.0

     negative rho (up, down):  1.679E-01 0.000E+00

     total cpu time spent up to now is        5.6 secs

     total energy              =      -1.79869617 Ry
     estimated scf accuracy    <       0.00002753 Ry

     iteration # 26     ecut=    10.00 Ry     beta= 0.70
     Davidson diagonalization with overlap

---- Real-time Memory Report at c_bands before calling an iterative solver
           130 MiB given to the printing process from OS
             0 MiB allocation reported by mallinfo(arena+hblkhd)
          1168 MiB available memory on the node where the printing process lives
------------------
     ethr =  5.20E-08,  avg # of iterations =  2.0

     negative rho (up, down):  1.679E-01 0.000E+00

     total cpu time spent up to now is        5.8 secs

     total energy              =      -1.79868646 Ry
     estimated scf accuracy    <       0.00001572 Ry

     iteration # 27     ecut=    10.00 Ry     beta= 0.70
     Davidson diagonalization with overlap

---- Real-time Memory Report at c_bands before calling an iterative solver
           130 MiB given to the printing process from OS
             0 MiB allocation reported by mallinfo(arena+hblkhd)
          1168 MiB available memory on the node where the printing process lives
------------------
     ethr =  5.20E-08,  avg # of iterations =  2.0

     negative rho (up, down):  1.679E-01 0.000E+00

     total cpu time spent up to now is        6.0 secs

     total energy              =      -1.79869332 Ry
     estimated scf accuracy    <       0.00003869 Ry

     iteration # 28     ecut=    10.00 Ry     beta= 0.70
     Davidson diagonalization with overlap

---- Real-time Memory Report at c_bands before calling an iterative solver
           130 MiB given to the printing process from OS
             0 MiB allocation reported by mallinfo(arena+hblkhd)
          1168 MiB available memory on the node where the printing process lives
------------------
     ethr =  5.20E-08,  avg # of iterations =  3.0

     negative rho (up, down):  1.679E-01 0.000E+00

     total cpu time spent up to now is        6.2 secs

     total energy              =      -1.79869382 Ry
     estimated scf accuracy    <       0.00004877 Ry

     iteration # 29     ecut=    10.00 Ry     beta= 0.70
     Davidson diagonalization with overlap

---- Real-time Memory Report at c_bands before calling an iterative solver
           130 MiB given to the printing process from OS
             0 MiB allocation reported by mallinfo(arena+hblkhd)
          1168 MiB available memory on the node where the printing process lives
------------------
     ethr =  5.20E-08,  avg # of iterations =  2.0

     negative rho (up, down):  1.679E-01 0.000E+00

     total cpu time spent up to now is        6.4 secs

     total energy              =      -1.79868416 Ry
     estimated scf accuracy    <       0.00000552 Ry

     iteration # 30     ecut=    10.00 Ry     beta= 0.70
     Davidson diagonalization with overlap

---- Real-time Memory Report at c_bands before calling an iterative solver
           130 MiB given to the printing process from OS
             0 MiB allocation reported by mallinfo(arena+hblkhd)
          1168 MiB available memory on the node where the printing process lives
------------------
     ethr =  5.20E-08,  avg # of iterations =  2.0

     negative rho (up, down):  1.679E-01 0.000E+00

     total cpu time spent up to now is        6.7 secs

     total energy              =      -1.79868354 Ry
     estimated scf accuracy    <       0.00000042 Ry

     iteration # 31     ecut=    10.00 Ry     beta= 0.70
     Davidson diagonalization with overlap

---- Real-time Memory Report at c_bands before calling an iterative solver
           130 MiB given to the printing process from OS
             0 MiB allocation reported by mallinfo(arena+hblkhd)
          1168 MiB available memory on the node where the printing process lives
------------------
     ethr =  2.08E-08,  avg # of iterations =  1.0

     negative rho (up, down):  1.679E-01 0.000E+00

     total cpu time spent up to now is        6.9 secs

     total energy              =      -1.79868951 Ry
     estimated scf accuracy    <       0.00000044 Ry

     iteration # 32     ecut=    10.00 Ry     beta= 0.70
     Davidson diagonalization with overlap

---- Real-time Memory Report at c_bands before calling an iterative solver
           130 MiB given to the printing process from OS
             0 MiB allocation reported by mallinfo(arena+hblkhd)
          1168 MiB available memory on the node where the printing process lives
------------------
     ethr =  2.08E-08,  avg # of iterations =  3.0

     negative rho (up, down):  1.678E-01 0.000E+00

     total cpu time spent up to now is        7.1 secs

     total energy              =      -1.79871454 Ry
     estimated scf accuracy    <       0.00004212 Ry

     iteration # 33     ecut=    10.00 Ry     beta= 0.70
     Davidson diagonalization with overlap

---- Real-time Memory Report at c_bands before calling an iterative solver
           130 MiB given to the printing process from OS
             0 MiB allocation reported by mallinfo(arena+hblkhd)
          1168 MiB available memory on the node where the printing process lives
------------------
     ethr =  2.08E-08,  avg # of iterations =  2.0

     negative rho (up, down):  1.679E-01 0.000E+00

     total cpu time spent up to now is        7.3 secs

     total energy              =      -1.79868765 Ry
     estimated scf accuracy    <       0.00001420 Ry

     iteration # 34     ecut=    10.00 Ry     beta= 0.70
     Davidson diagonalization with overlap

---- Real-time Memory Report at c_bands before calling an iterative solver
           130 MiB given to the printing process from OS
             0 MiB allocation reported by mallinfo(arena+hblkhd)
          1168 MiB available memory on the node where the printing process lives
------------------
     ethr =  2.08E-08,  avg # of iterations =  2.0

     negative rho (up, down):  1.679E-01 0.000E+00

     total cpu time spent up to now is        7.5 secs

     total energy              =      -1.79868111 Ry
     estimated scf accuracy    <       0.00001500 Ry

     iteration # 35     ecut=    10.00 Ry     beta= 0.70
     Davidson diagonalization with overlap

---- Real-time Memory Report at c_bands before calling an iterative solver
           130 MiB given to the printing process from OS
             0 MiB allocation reported by mallinfo(arena+hblkhd)
          1168 MiB available memory on the node where the printing process lives
------------------
     ethr =  2.08E-08,  avg # of iterations =  2.0

     negative rho (up, down):  1.679E-01 0.000E+00

     total cpu time spent up to now is        7.7 secs

     total energy              =      -1.79867660 Ry
     estimated scf accuracy    <       0.00000633 Ry

     iteration # 36     ecut=    10.00 Ry     beta= 0.70
     Davidson diagonalization with overlap

---- Real-time Memory Report at c_bands before calling an iterative solver
           130 MiB given to the printing process from OS
             0 MiB allocation reported by mallinfo(arena+hblkhd)
          1168 MiB available memory on the node where the printing process lives
------------------
     ethr =  2.08E-08,  avg # of iterations =  2.0

     negative rho (up, down):  1.679E-01 0.000E+00

     total cpu time spent up to now is        8.0 secs

     total energy              =      -1.79868815 Ry
     estimated scf accuracy    <       0.00001100 Ry

     iteration # 37     ecut=    10.00 Ry     beta= 0.70
     Davidson diagonalization with overlap

---- Real-time Memory Report at c_bands before calling an iterative solver
           130 MiB given to the printing process from OS
             0 MiB allocation reported by mallinfo(arena+hblkhd)
          1168 MiB available memory on the node where the printing process lives
------------------
     ethr =  2.08E-08,  avg # of iterations =  3.0

     negative rho (up, down):  1.679E-01 0.000E+00

     total cpu time spent up to now is        8.2 secs

     total energy              =      -1.79868916 Ry
     estimated scf accuracy    <       0.00001164 Ry

     iteration # 38     ecut=    10.00 Ry     beta= 0.70
     Davidson diagonalization with overlap

---- Real-time Memory Report at c_bands before calling an iterative solver
           130 MiB given to the printing process from OS
             0 MiB allocation reported by mallinfo(arena+hblkhd)
          1168 MiB available memory on the node where the printing process lives
------------------
     ethr =  2.08E-08,  avg # of iterations =  3.0

     negative rho (up, down):  1.679E-01 0.000E+00

     total cpu time spent up to now is        8.4 secs

     total energy              =      -1.79870291 Ry
     estimated scf accuracy    <       0.00001570 Ry

     iteration # 39     ecut=    10.00 Ry     beta= 0.70
     Davidson diagonalization with overlap

---- Real-time Memory Report at c_bands before calling an iterative solver
           130 MiB given to the printing process from OS
             0 MiB allocation reported by mallinfo(arena+hblkhd)
          1168 MiB available memory on the node where the printing process lives
------------------
     ethr =  2.08E-08,  avg # of iterations =  3.0

     negative rho (up, down):  1.679E-01 0.000E+00

     total cpu time spent up to now is        8.6 secs

     total energy              =      -1.79868879 Ry
     estimated scf accuracy    <       0.00002186 Ry

     iteration # 40     ecut=    10.00 Ry     beta= 0.70
     Davidson diagonalization with overlap

---- Real-time Memory Report at c_bands before calling an iterative solver
           130 MiB given to the printing process from OS
             0 MiB allocation reported by mallinfo(arena+hblkhd)
          1168 MiB available memory on the node where the printing process lives
------------------
     ethr =  2.08E-08,  avg # of iterations =  3.0

     negative rho (up, down):  1.679E-01 0.000E+00

     total cpu time spent up to now is        8.8 secs

     total energy              =      -1.79868596 Ry
     estimated scf accuracy    <       0.00001184 Ry

     iteration # 41     ecut=    10.00 Ry     beta= 0.70
     Davidson diagonalization with overlap

---- Real-time Memory Report at c_bands before calling an iterative solver
           130 MiB given to the printing process from OS
             0 MiB allocation reported by mallinfo(arena+hblkhd)
          1168 MiB available memory on the node where the printing process lives
------------------
     ethr =  2.08E-08,  avg # of iterations =  3.0

     negative rho (up, down):  1.679E-01 0.000E+00

     total cpu time spent up to now is        9.1 secs

     total energy              =      -1.79868719 Ry
     estimated scf accuracy    <       0.00002103 Ry

     iteration # 42     ecut=    10.00 Ry     beta= 0.70
     Davidson diagonalization with overlap

---- Real-time Memory Report at c_bands before calling an iterative solver
           130 MiB given to the printing process from OS
             0 MiB allocation reported by mallinfo(arena+hblkhd)
          1168 MiB available memory on the node where the printing process lives
------------------
     ethr =  2.08E-08,  avg # of iterations =  1.0

     negative rho (up, down):  1.679E-01 0.000E+00

     total cpu time spent up to now is        9.3 secs

     total energy              =      -1.79869912 Ry
     estimated scf accuracy    <       0.00002151 Ry

     iteration # 43     ecut=    10.00 Ry     beta= 0.70
     Davidson diagonalization with overlap

---- Real-time Memory Report at c_bands before calling an iterative solver
           130 MiB given to the printing process from OS
             0 MiB allocation reported by mallinfo(arena+hblkhd)
          1168 MiB available memory on the node where the printing process lives
------------------
     ethr =  2.08E-08,  avg # of iterations =  3.0

     negative rho (up, down):  1.679E-01 0.000E+00

     total cpu time spent up to now is        9.5 secs

     total energy              =      -1.79870253 Ry
     estimated scf accuracy    <       0.00000488 Ry

     iteration # 44     ecut=    10.00 Ry     beta= 0.70
     Davidson diagonalization with overlap

---- Real-time Memory Report at c_bands before calling an iterative solver
           130 MiB given to the printing process from OS
             0 MiB allocation reported by mallinfo(arena+hblkhd)
          1168 MiB available memory on the node where the printing process lives
------------------
     ethr =  2.08E-08,  avg # of iterations =  1.0

     negative rho (up, down):  1.679E-01 0.000E+00

     total cpu time spent up to now is        9.7 secs

     total energy              =      -1.79868276 Ry
     estimated scf accuracy    <       0.00000577 Ry

     iteration # 45     ecut=    10.00 Ry     beta= 0.70
     Davidson diagonalization with overlap

---- Real-time Memory Report at c_bands before calling an iterative solver
           130 MiB given to the printing process from OS
             0 MiB allocation reported by mallinfo(arena+hblkhd)
          1168 MiB available memory on the node where the printing process lives
------------------
     ethr =  2.08E-08,  avg # of iterations =  3.0

     negative rho (up, down):  1.679E-01 0.000E+00

     total cpu time spent up to now is        9.9 secs

     total energy              =      -1.79868916 Ry
     estimated scf accuracy    <       0.00000073 Ry

     iteration # 46     ecut=    10.00 Ry     beta= 0.70
     Davidson diagonalization with overlap

---- Real-time Memory Report at c_bands before calling an iterative solver
           130 MiB given to the printing process from OS
             0 MiB allocation reported by mallinfo(arena+hblkhd)
          1168 MiB available memory on the node where the printing process lives
------------------
     ethr =  2.08E-08,  avg # of iterations =  2.0

     negative rho (up, down):  1.679E-01 0.000E+00

     total cpu time spent up to now is       10.2 secs

     total energy              =      -1.79869464 Ry
     estimated scf accuracy    <       0.00001122 Ry

     iteration # 47     ecut=    10.00 Ry     beta= 0.70
     Davidson diagonalization with overlap

---- Real-time Memory Report at c_bands before calling an iterative solver
           130 MiB given to the printing process from OS
             0 MiB allocation reported by mallinfo(arena+hblkhd)
          1168 MiB available memory on the node where the printing process lives
------------------
     ethr =  2.08E-08,  avg # of iterations =  3.0

     negative rho (up, down):  1.679E-01 0.000E+00

     total cpu time spent up to now is       10.4 secs

     total energy              =      -1.79866784 Ry
     estimated scf accuracy    <       0.00000247 Ry

     iteration # 48     ecut=    10.00 Ry     beta= 0.70
     Davidson diagonalization with overlap

---- Real-time Memory Report at c_bands before calling an iterative solver
           130 MiB given to the printing process from OS
             0 MiB allocation reported by mallinfo(arena+hblkhd)
          1168 MiB available memory on the node where the printing process lives
------------------
     ethr =  2.08E-08,  avg # of iterations =  3.0

     negative rho (up, down):  1.679E-01 0.000E+00

     total cpu time spent up to now is       10.6 secs

     total energy              =      -1.79867400 Ry
     estimated scf accuracy    <       0.00000185 Ry

     iteration # 49     ecut=    10.00 Ry     beta= 0.70
     Davidson diagonalization with overlap

---- Real-time Memory Report at c_bands before calling an iterative solver
           130 MiB given to the printing process from OS
             0 MiB allocation reported by mallinfo(arena+hblkhd)
          1168 MiB available memory on the node where the printing process lives
------------------
     ethr =  2.08E-08,  avg # of iterations =  2.0

     negative rho (up, down):  1.679E-01 0.000E+00

     total cpu time spent up to now is       10.9 secs

     total energy              =      -1.79867208 Ry
     estimated scf accuracy    <       0.00006549 Ry

     iteration # 50     ecut=    10.00 Ry     beta= 0.70
     Davidson diagonalization with overlap

---- Real-time Memory Report at c_bands before calling an iterative solver
           130 MiB given to the printing process from OS
             0 MiB allocation reported by mallinfo(arena+hblkhd)
          1168 MiB available memory on the node where the printing process lives
------------------
     ethr =  2.08E-08,  avg # of iterations =  3.0

     negative rho (up, down):  1.679E-01 0.000E+00

     total cpu time spent up to now is       11.1 secs

     total energy              =      -1.79867311 Ry
     estimated scf accuracy    <       0.00000047 Ry

     iteration # 51     ecut=    10.00 Ry     beta= 0.70
     Davidson diagonalization with overlap

---- Real-time Memory Report at c_bands before calling an iterative solver
           130 MiB given to the printing process from OS
             0 MiB allocation reported by mallinfo(arena+hblkhd)
          1168 MiB available memory on the node where the printing process lives
------------------
     ethr =  2.08E-08,  avg # of iterations =  1.0

     negative rho (up, down):  1.679E-01 0.000E+00

     total cpu time spent up to now is       11.3 secs

     total energy              =      -1.79867273 Ry
     estimated scf accuracy    <       0.00000053 Ry

     iteration # 52     ecut=    10.00 Ry     beta= 0.70
     Davidson diagonalization with overlap

---- Real-time Memory Report at c_bands before calling an iterative solver
           130 MiB given to the printing process from OS
             0 MiB allocation reported by mallinfo(arena+hblkhd)
          1168 MiB available memory on the node where the printing process lives
------------------
     ethr =  2.08E-08,  avg # of iterations =  1.0

     negative rho (up, down):  1.679E-01 0.000E+00

     total cpu time spent up to now is       11.5 secs

     total energy              =      -1.79868873 Ry
     estimated scf accuracy    <       0.00000054 Ry

     iteration # 53     ecut=    10.00 Ry     beta= 0.70
     Davidson diagonalization with overlap

---- Real-time Memory Report at c_bands before calling an iterative solver
           130 MiB given to the printing process from OS
             0 MiB allocation reported by mallinfo(arena+hblkhd)
          1168 MiB available memory on the node where the printing process lives
------------------
     ethr =  2.08E-08,  avg # of iterations =  2.0

     negative rho (up, down):  1.679E-01 0.000E+00

     total cpu time spent up to now is       11.7 secs

     total energy              =      -1.79869296 Ry
     estimated scf accuracy    <       0.00000395 Ry

     iteration # 54     ecut=    10.00 Ry     beta= 0.70
     Davidson diagonalization with overlap

---- Real-time Memory Report at c_bands before calling an iterative solver
           130 MiB given to the printing process from OS
             0 MiB allocation reported by mallinfo(arena+hblkhd)
          1168 MiB available memory on the node where the printing process lives
------------------
     ethr =  2.08E-08,  avg # of iterations =  2.0

     negative rho (up, down):  1.679E-01 0.000E+00

     total cpu time spent up to now is       12.0 secs

     total energy              =      -1.79869647 Ry
     estimated scf accuracy    <       0.00001168 Ry

     iteration # 55     ecut=    10.00 Ry     beta= 0.70
     Davidson diagonalization with overlap

---- Real-time Memory Report at c_bands before calling an iterative solver
           130 MiB given to the printing process from OS
             0 MiB allocation reported by mallinfo(arena+hblkhd)
          1168 MiB available memory on the node where the printing process lives
------------------
     ethr =  2.08E-08,  avg # of iterations =  1.0

     negative rho (up, down):  1.679E-01 0.000E+00

     total cpu time spent up to now is       12.2 secs

     total energy              =      -1.79870487 Ry
     estimated scf accuracy    <       0.00001776 Ry

     iteration # 56     ecut=    10.00 Ry     beta= 0.70
     Davidson diagonalization with overlap

---- Real-time Memory Report at c_bands before calling an iterative solver
           130 MiB given to the printing process from OS
             0 MiB allocation reported by mallinfo(arena+hblkhd)
          1167 MiB available memory on the node where the printing process lives
------------------
     ethr =  2.08E-08,  avg # of iterations =  2.0

     negative rho (up, down):  1.677E-01 0.000E+00

     total cpu time spent up to now is       12.4 secs

     total energy              =      -1.79875290 Ry
     estimated scf accuracy    <       0.00006775 Ry

     iteration # 57     ecut=    10.00 Ry     beta= 0.70
     Davidson diagonalization with overlap

---- Real-time Memory Report at c_bands before calling an iterative solver
           130 MiB given to the printing process from OS
             0 MiB allocation reported by mallinfo(arena+hblkhd)
          1167 MiB available memory on the node where the printing process lives
------------------
     ethr =  2.08E-08,  avg # of iterations =  3.0

     negative rho (up, down):  1.677E-01 0.000E+00

     total cpu time spent up to now is       12.6 secs

     total energy              =      -1.79875808 Ry
     estimated scf accuracy    <       0.00032685 Ry

     iteration # 58     ecut=    10.00 Ry     beta= 0.70
     Davidson diagonalization with overlap

---- Real-time Memory Report at c_bands before calling an iterative solver
           130 MiB given to the printing process from OS
             0 MiB allocation reported by mallinfo(arena+hblkhd)
          1167 MiB available memory on the node where the printing process lives
------------------
     ethr =  2.08E-08,  avg # of iterations =  2.0

     negative rho (up, down):  1.677E-01 0.000E+00

     total cpu time spent up to now is       12.8 secs

     total energy              =      -1.79874979 Ry
     estimated scf accuracy    <       0.00040745 Ry

     iteration # 59     ecut=    10.00 Ry     beta= 0.70
     Davidson diagonalization with overlap

---- Real-time Memory Report at c_bands before calling an iterative solver
           130 MiB given to the printing process from OS
             0 MiB allocation reported by mallinfo(arena+hblkhd)
          1167 MiB available memory on the node where the printing process lives
------------------
     ethr =  2.08E-08,  avg # of iterations =  1.0

     negative rho (up, down):  1.678E-01 0.000E+00

     total cpu time spent up to now is       13.0 secs

     total energy              =      -1.79870178 Ry
     estimated scf accuracy    <       0.00027147 Ry

     iteration # 60     ecut=    10.00 Ry     beta= 0.70
     Davidson diagonalization with overlap

---- Real-time Memory Report at c_bands before calling an iterative solver
           130 MiB given to the printing process from OS
             0 MiB allocation reported by mallinfo(arena+hblkhd)
          1167 MiB available memory on the node where the printing process lives
------------------
     ethr =  2.08E-08,  avg # of iterations =  2.0

     negative rho (up, down):  1.679E-01 0.000E+00

     total cpu time spent up to now is       13.3 secs

     total energy              =      -1.79869531 Ry
     estimated scf accuracy    <       0.00003136 Ry

     iteration # 61     ecut=    10.00 Ry     beta= 0.70
     Davidson diagonalization with overlap

---- Real-time Memory Report at c_bands before calling an iterative solver
           130 MiB given to the printing process from OS
             0 MiB allocation reported by mallinfo(arena+hblkhd)
          1167 MiB available memory on the node where the printing process lives
------------------
     ethr =  2.08E-08,  avg # of iterations =  3.0

     negative rho (up, down):  1.679E-01 0.000E+00

     total cpu time spent up to now is       13.5 secs

     total energy              =      -1.79869613 Ry
     estimated scf accuracy    <       0.00000087 Ry

     iteration # 62     ecut=    10.00 Ry     beta= 0.70
     Davidson diagonalization with overlap

---- Real-time Memory Report at c_bands before calling an iterative solver
           130 MiB given to the printing process from OS
             0 MiB allocation reported by mallinfo(arena+hblkhd)
          1167 MiB available memory on the node where the printing process lives
------------------
     ethr =  2.08E-08,  avg # of iterations =  2.0

     negative rho (up, down):  1.679E-01 0.000E+00

     total cpu time spent up to now is       13.7 secs

     total energy              =      -1.79867446 Ry
     estimated scf accuracy    <       0.00000198 Ry

     iteration # 63     ecut=    10.00 Ry     beta= 0.70
     Davidson diagonalization with overlap

---- Real-time Memory Report at c_bands before calling an iterative solver
           130 MiB given to the printing process from OS
             0 MiB allocation reported by mallinfo(arena+hblkhd)
          1167 MiB available memory on the node where the printing process lives
------------------
     ethr =  2.08E-08,  avg # of iterations =  3.0

     negative rho (up, down):  1.679E-01 0.000E+00

     total cpu time spent up to now is       13.9 secs

     total energy              =      -1.79866769 Ry
     estimated scf accuracy    <       0.00001561 Ry

     iteration # 64     ecut=    10.00 Ry     beta= 0.70
     Davidson diagonalization with overlap

---- Real-time Memory Report at c_bands before calling an iterative solver
           130 MiB given to the printing process from OS
             0 MiB allocation reported by mallinfo(arena+hblkhd)
          1167 MiB available memory on the node where the printing process lives
------------------
     ethr =  2.08E-08,  avg # of iterations =  2.0

     negative rho (up, down):  1.679E-01 0.000E+00

     total cpu time spent up to now is       14.2 secs

     total energy              =      -1.79866631 Ry
     estimated scf accuracy    <       0.00003113 Ry

     iteration # 65     ecut=    10.00 Ry     beta= 0.70
     Davidson diagonalization with overlap

---- Real-time Memory Report at c_bands before calling an iterative solver
           130 MiB given to the printing process from OS
             0 MiB allocation reported by mallinfo(arena+hblkhd)
          1167 MiB available memory on the node where the printing process lives
------------------
     ethr =  2.08E-08,  avg # of iterations =  1.0

     negative rho (up, down):  1.679E-01 0.000E+00

     total cpu time spent up to now is       14.4 secs

     total energy              =      -1.79866454 Ry
     estimated scf accuracy    <       0.00003208 Ry

     iteration # 66     ecut=    10.00 Ry     beta= 0.70
     Davidson diagonalization with overlap

---- Real-time Memory Report at c_bands before calling an iterative solver
           130 MiB given to the printing process from OS
             0 MiB allocation reported by mallinfo(arena+hblkhd)
          1167 MiB available memory on the node where the printing process lives
------------------
     ethr =  2.08E-08,  avg # of iterations =  1.0

     negative rho (up, down):  1.680E-01 0.000E+00

     total cpu time spent up to now is       14.6 secs

     total energy              =      -1.79862389 Ry
     estimated scf accuracy    <       0.00001847 Ry

     iteration # 67     ecut=    10.00 Ry     beta= 0.70
     Davidson diagonalization with overlap

---- Real-time Memory Report at c_bands before calling an iterative solver
           130 MiB given to the printing process from OS
             0 MiB allocation reported by mallinfo(arena+hblkhd)
          1167 MiB available memory on the node where the printing process lives
------------------
     ethr =  2.08E-08,  avg # of iterations =  3.0

     negative rho (up, down):  1.679E-01 0.000E+00

     total cpu time spent up to now is       14.8 secs

     total energy              =      -1.79869007 Ry
     estimated scf accuracy    <       0.00008198 Ry

     iteration # 68     ecut=    10.00 Ry     beta= 0.70
     Davidson diagonalization with overlap

---- Real-time Memory Report at c_bands before calling an iterative solver
           130 MiB given to the printing process from OS
             0 MiB allocation reported by mallinfo(arena+hblkhd)
          1167 MiB available memory on the node where the printing process lives
------------------
     ethr =  2.08E-08,  avg # of iterations =  4.0

     negative rho (up, down):  1.679E-01 0.000E+00

     total cpu time spent up to now is       15.0 secs

     total energy              =      -1.79868692 Ry
     estimated scf accuracy    <       0.00016096 Ry

     iteration # 69     ecut=    10.00 Ry     beta= 0.70
     Davidson diagonalization with overlap

---- Real-time Memory Report at c_bands before calling an iterative solver
           130 MiB given to the printing process from OS
             0 MiB allocation reported by mallinfo(arena+hblkhd)
          1167 MiB available memory on the node where the printing process lives
------------------
     ethr =  2.08E-08,  avg # of iterations =  3.0

     negative rho (up, down):  1.678E-01 0.000E+00

     total cpu time spent up to now is       15.2 secs

     total energy              =      -1.79872955 Ry
     estimated scf accuracy    <       0.00001195 Ry

     iteration # 70     ecut=    10.00 Ry     beta= 0.70
     Davidson diagonalization with overlap

---- Real-time Memory Report at c_bands before calling an iterative solver
           130 MiB given to the printing process from OS
             0 MiB allocation reported by mallinfo(arena+hblkhd)
          1167 MiB available memory on the node where the printing process lives
------------------
     ethr =  2.08E-08,  avg # of iterations =  4.0

     negative rho (up, down):  1.679E-01 0.000E+00

     total cpu time spent up to now is       15.5 secs

     total energy              =      -1.79869174 Ry
     estimated scf accuracy    <       0.00000063 Ry

     iteration # 71     ecut=    10.00 Ry     beta= 0.70
     Davidson diagonalization with overlap

---- Real-time Memory Report at c_bands before calling an iterative solver
           130 MiB given to the printing process from OS
             0 MiB allocation reported by mallinfo(arena+hblkhd)
          1167 MiB available memory on the node where the printing process lives
------------------
     ethr =  2.08E-08,  avg # of iterations =  4.0

     negative rho (up, down):  1.679E-01 0.000E+00

     total cpu time spent up to now is       15.7 secs

     total energy              =      -1.79868813 Ry
     estimated scf accuracy    <       0.00001087 Ry

     iteration # 72     ecut=    10.00 Ry     beta= 0.70
     Davidson diagonalization with overlap

---- Real-time Memory Report at c_bands before calling an iterative solver
           130 MiB given to the printing process from OS
             0 MiB allocation reported by mallinfo(arena+hblkhd)
          1167 MiB available memory on the node where the printing process lives
------------------
     ethr =  2.08E-08,  avg # of iterations =  2.0

     negative rho (up, down):  1.679E-01 0.000E+00

     total cpu time spent up to now is       15.9 secs

     total energy              =      -1.79867704 Ry
     estimated scf accuracy    <       0.00000691 Ry

     iteration # 73     ecut=    10.00 Ry     beta= 0.70
     Davidson diagonalization with overlap

---- Real-time Memory Report at c_bands before calling an iterative solver
           130 MiB given to the printing process from OS
             0 MiB allocation reported by mallinfo(arena+hblkhd)
          1167 MiB available memory on the node where the printing process lives
------------------
     ethr =  2.08E-08,  avg # of iterations =  2.0

     negative rho (up, down):  1.679E-01 0.000E+00

     total cpu time spent up to now is       16.1 secs

     total energy              =      -1.79868852 Ry
     estimated scf accuracy    <       0.00000092 Ry

     iteration # 74     ecut=    10.00 Ry     beta= 0.70
     Davidson diagonalization with overlap

---- Real-time Memory Report at c_bands before calling an iterative solver
           130 MiB given to the printing process from OS
             0 MiB allocation reported by mallinfo(arena+hblkhd)
          1167 MiB available memory on the node where the printing process lives
------------------
     ethr =  2.08E-08,  avg # of iterations =  2.0

     negative rho (up, down):  1.679E-01 0.000E+00

     total cpu time spent up to now is       16.3 secs

     total energy              =      -1.79867670 Ry
     estimated scf accuracy    <       0.00000774 Ry

     iteration # 75     ecut=    10.00 Ry     beta= 0.70
     Davidson diagonalization with overlap

---- Real-time Memory Report at c_bands before calling an iterative solver
           130 MiB given to the printing process from OS
             0 MiB allocation reported by mallinfo(arena+hblkhd)
          1167 MiB available memory on the node where the printing process lives
------------------
     ethr =  2.08E-08,  avg # of iterations =  2.0

     negative rho (up, down):  1.679E-01 0.000E+00

     total cpu time spent up to now is       16.6 secs

     total energy              =      -1.79868480 Ry
     estimated scf accuracy    <       0.00000074 Ry

     iteration # 76     ecut=    10.00 Ry     beta= 0.70
     Davidson diagonalization with overlap

---- Real-time Memory Report at c_bands before calling an iterative solver
           130 MiB given to the printing process from OS
             0 MiB allocation reported by mallinfo(arena+hblkhd)
          1167 MiB available memory on the node where the printing process lives
------------------
     ethr =  2.08E-08,  avg # of iterations =  2.0

     negative rho (up, down):  1.679E-01 0.000E+00

     total cpu time spent up to now is       16.8 secs

     total energy              =      -1.79869047 Ry
     estimated scf accuracy    <       0.00000448 Ry

     iteration # 77     ecut=    10.00 Ry     beta= 0.70
     Davidson diagonalization with overlap

---- Real-time Memory Report at c_bands before calling an iterative solver
           130 MiB given to the printing process from OS
             0 MiB allocation reported by mallinfo(arena+hblkhd)
          1167 MiB available memory on the node where the printing process lives
------------------
     ethr =  2.08E-08,  avg # of iterations =  2.0

     negative rho (up, down):  1.679E-01 0.000E+00

     total cpu time spent up to now is       17.0 secs

     total energy              =      -1.79871643 Ry
     estimated scf accuracy    <       0.00001185 Ry

     iteration # 78     ecut=    10.00 Ry     beta= 0.70
     Davidson diagonalization with overlap

---- Real-time Memory Report at c_bands before calling an iterative solver
           130 MiB given to the printing process from OS
             0 MiB allocation reported by mallinfo(arena+hblkhd)
          1167 MiB available memory on the node where the printing process lives
------------------
     ethr =  2.08E-08,  avg # of iterations =  3.0

     negative rho (up, down):  1.679E-01 0.000E+00

     total cpu time spent up to now is       17.2 secs

     total energy              =      -1.79870890 Ry
     estimated scf accuracy    <       0.00012935 Ry

     iteration # 79     ecut=    10.00 Ry     beta= 0.70
     Davidson diagonalization with overlap

---- Real-time Memory Report at c_bands before calling an iterative solver
           130 MiB given to the printing process from OS
             0 MiB allocation reported by mallinfo(arena+hblkhd)
          1167 MiB available memory on the node where the printing process lives
------------------
     ethr =  2.08E-08,  avg # of iterations =  2.0

     negative rho (up, down):  1.679E-01 0.000E+00

     total cpu time spent up to now is       17.5 secs

     total energy              =      -1.79870096 Ry
     estimated scf accuracy    <       0.00007482 Ry

     iteration # 80     ecut=    10.00 Ry     beta= 0.70
     Davidson diagonalization with overlap

---- Real-time Memory Report at c_bands before calling an iterative solver
           130 MiB given to the printing process from OS
             0 MiB allocation reported by mallinfo(arena+hblkhd)
          1167 MiB available memory on the node where the printing process lives
------------------
     ethr =  2.08E-08,  avg # of iterations =  3.0

     negative rho (up, down):  1.679E-01 0.000E+00

     total cpu time spent up to now is       17.7 secs

     total energy              =      -1.79867286 Ry
     estimated scf accuracy    <       0.00003543 Ry

     iteration # 81     ecut=    10.00 Ry     beta= 0.70
     Davidson diagonalization with overlap

---- Real-time Memory Report at c_bands before calling an iterative solver
           130 MiB given to the printing process from OS
             0 MiB allocation reported by mallinfo(arena+hblkhd)
          1167 MiB available memory on the node where the printing process lives
------------------
     ethr =  2.08E-08,  avg # of iterations =  3.0

     negative rho (up, down):  1.679E-01 0.000E+00

     total cpu time spent up to now is       17.9 secs

     total energy              =      -1.79870567 Ry
     estimated scf accuracy    <       0.00005343 Ry

     iteration # 82     ecut=    10.00 Ry     beta= 0.70
     Davidson diagonalization with overlap

---- Real-time Memory Report at c_bands before calling an iterative solver
           130 MiB given to the printing process from OS
             0 MiB allocation reported by mallinfo(arena+hblkhd)
          1167 MiB available memory on the node where the printing process lives
------------------
     ethr =  2.08E-08,  avg # of iterations =  3.0

     negative rho (up, down):  1.679E-01 0.000E+00

     total cpu time spent up to now is       18.2 secs

     total energy              =      -1.79870614 Ry
     estimated scf accuracy    <       0.00000276 Ry

     iteration # 83     ecut=    10.00 Ry     beta= 0.70
     Davidson diagonalization with overlap

---- Real-time Memory Report at c_bands before calling an iterative solver
           130 MiB given to the printing process from OS
             0 MiB allocation reported by mallinfo(arena+hblkhd)
          1167 MiB available memory on the node where the printing process lives
------------------
     ethr =  2.08E-08,  avg # of iterations =  1.0

     negative rho (up, down):  1.679E-01 0.000E+00

     total cpu time spent up to now is       18.4 secs

     total energy              =      -1.79870597 Ry
     estimated scf accuracy    <       0.00000200 Ry

     iteration # 84     ecut=    10.00 Ry     beta= 0.70
     Davidson diagonalization with overlap

---- Real-time Memory Report at c_bands before calling an iterative solver
           130 MiB given to the printing process from OS
             0 MiB allocation reported by mallinfo(arena+hblkhd)
          1167 MiB available memory on the node where the printing process lives
------------------
     ethr =  2.08E-08,  avg # of iterations =  1.0

     negative rho (up, down):  1.679E-01 0.000E+00

     total cpu time spent up to now is       18.7 secs

     total energy              =      -1.79870547 Ry
     estimated scf accuracy    <       0.00000207 Ry

     iteration # 85     ecut=    10.00 Ry     beta= 0.70
     Davidson diagonalization with overlap

---- Real-time Memory Report at c_bands before calling an iterative solver
           130 MiB given to the printing process from OS
             0 MiB allocation reported by mallinfo(arena+hblkhd)
          1167 MiB available memory on the node where the printing process lives
------------------
     ethr =  2.08E-08,  avg # of iterations =  1.0

     negative rho (up, down):  1.679E-01 0.000E+00

     total cpu time spent up to now is       19.0 secs

     total energy              =      -1.79870314 Ry
     estimated scf accuracy    <       0.00000173 Ry

     iteration # 86     ecut=    10.00 Ry     beta= 0.70
     Davidson diagonalization with overlap

---- Real-time Memory Report at c_bands before calling an iterative solver
           130 MiB given to the printing process from OS
             0 MiB allocation reported by mallinfo(arena+hblkhd)
          1167 MiB available memory on the node where the printing process lives
------------------
     ethr =  2.08E-08,  avg # of iterations =  2.0

     negative rho (up, down):  1.679E-01 0.000E+00

     total cpu time spent up to now is       19.2 secs

     total energy              =      -1.79870643 Ry
     estimated scf accuracy    <       0.00000103 Ry

     iteration # 87     ecut=    10.00 Ry     beta= 0.70
     Davidson diagonalization with overlap

---- Real-time Memory Report at c_bands before calling an iterative solver
           130 MiB given to the printing process from OS
             0 MiB allocation reported by mallinfo(arena+hblkhd)
          1167 MiB available memory on the node where the printing process lives
------------------
     ethr =  2.08E-08,  avg # of iterations =  2.0

     negative rho (up, down):  1.679E-01 0.000E+00

     total cpu time spent up to now is       19.4 secs

     total energy              =      -1.79869370 Ry
     estimated scf accuracy    <       0.00000190 Ry

     iteration # 88     ecut=    10.00 Ry     beta= 0.70
     Davidson diagonalization with overlap

---- Real-time Memory Report at c_bands before calling an iterative solver
           130 MiB given to the printing process from OS
             0 MiB allocation reported by mallinfo(arena+hblkhd)
          1167 MiB available memory on the node where the printing process lives
------------------
     ethr =  2.08E-08,  avg # of iterations =  2.0

     negative rho (up, down):  1.679E-01 0.000E+00

     total cpu time spent up to now is       19.7 secs

     total energy              =      -1.79870497 Ry
     estimated scf accuracy    <       0.00000105 Ry

     iteration # 89     ecut=    10.00 Ry     beta= 0.70
     Davidson diagonalization with overlap

---- Real-time Memory Report at c_bands before calling an iterative solver
           130 MiB given to the printing process from OS
             0 MiB allocation reported by mallinfo(arena+hblkhd)
          1167 MiB available memory on the node where the printing process lives
------------------
     ethr =  2.08E-08,  avg # of iterations =  3.0

     negative rho (up, down):  1.679E-01 0.000E+00

     total cpu time spent up to now is       19.9 secs

     total energy              =      -1.79869670 Ry
     estimated scf accuracy    <       0.00004792 Ry

     iteration # 90     ecut=    10.00 Ry     beta= 0.70
     Davidson diagonalization with overlap

---- Real-time Memory Report at c_bands before calling an iterative solver
           130 MiB given to the printing process from OS
             0 MiB allocation reported by mallinfo(arena+hblkhd)
          1167 MiB available memory on the node where the printing process lives
------------------
     ethr =  2.08E-08,  avg # of iterations =  3.0

     negative rho (up, down):  1.679E-01 0.000E+00

     total cpu time spent up to now is       20.2 secs

     total energy              =      -1.79870101 Ry
     estimated scf accuracy    <       0.00003319 Ry

     iteration # 91     ecut=    10.00 Ry     beta= 0.70
     Davidson diagonalization with overlap

---- Real-time Memory Report at c_bands before calling an iterative solver
           130 MiB given to the printing process from OS
             0 MiB allocation reported by mallinfo(arena+hblkhd)
          1167 MiB available memory on the node where the printing process lives
------------------
     ethr =  2.08E-08,  avg # of iterations =  1.0

     negative rho (up, down):  1.679E-01 0.000E+00

     total cpu time spent up to now is       20.4 secs

     total energy              =      -1.79870035 Ry
     estimated scf accuracy    <       0.00003164 Ry

     iteration # 92     ecut=    10.00 Ry     beta= 0.70
     Davidson diagonalization with overlap

---- Real-time Memory Report at c_bands before calling an iterative solver
           130 MiB given to the printing process from OS
             0 MiB allocation reported by mallinfo(arena+hblkhd)
          1167 MiB available memory on the node where the printing process lives
------------------
     ethr =  2.08E-08,  avg # of iterations =  1.0

     negative rho (up, down):  1.679E-01 0.000E+00

     total cpu time spent up to now is       20.6 secs

     total energy              =      -1.79869963 Ry
     estimated scf accuracy    <       0.00003558 Ry

     iteration # 93     ecut=    10.00 Ry     beta= 0.70
     Davidson diagonalization with overlap

---- Real-time Memory Report at c_bands before calling an iterative solver
           130 MiB given to the printing process from OS
             0 MiB allocation reported by mallinfo(arena+hblkhd)
          1167 MiB available memory on the node where the printing process lives
------------------
     ethr =  2.08E-08,  avg # of iterations =  1.0

     negative rho (up, down):  1.679E-01 0.000E+00

     total cpu time spent up to now is       20.9 secs

     total energy              =      -1.79870062 Ry
     estimated scf accuracy    <       0.00003702 Ry

     iteration # 94     ecut=    10.00 Ry     beta= 0.70
     Davidson diagonalization with overlap

---- Real-time Memory Report at c_bands before calling an iterative solver
           130 MiB given to the printing process from OS
             0 MiB allocation reported by mallinfo(arena+hblkhd)
          1167 MiB available memory on the node where the printing process lives
------------------
     ethr =  2.08E-08,  avg # of iterations =  1.0

     negative rho (up, down):  1.679E-01 0.000E+00

     total cpu time spent up to now is       21.1 secs

     total energy              =      -1.79870450 Ry
     estimated scf accuracy    <       0.00004153 Ry

     iteration # 95     ecut=    10.00 Ry     beta= 0.70
     Davidson diagonalization with overlap

---- Real-time Memory Report at c_bands before calling an iterative solver
           130 MiB given to the printing process from OS
             0 MiB allocation reported by mallinfo(arena+hblkhd)
          1167 MiB available memory on the node where the printing process lives
------------------
     ethr =  2.08E-08,  avg # of iterations =  2.0

     negative rho (up, down):  1.679E-01 0.000E+00

     total cpu time spent up to now is       21.3 secs

     total energy              =      -1.79870030 Ry
     estimated scf accuracy    <       0.00000175 Ry

     iteration # 96     ecut=    10.00 Ry     beta= 0.70
     Davidson diagonalization with overlap

---- Real-time Memory Report at c_bands before calling an iterative solver
           130 MiB given to the printing process from OS
             0 MiB allocation reported by mallinfo(arena+hblkhd)
          1167 MiB available memory on the node where the printing process lives
------------------
     ethr =  2.08E-08,  avg # of iterations =  2.0

     negative rho (up, down):  1.679E-01 0.000E+00

     total cpu time spent up to now is       21.6 secs

     total energy              =      -1.79869892 Ry
     estimated scf accuracy    <       0.00003951 Ry

     iteration # 97     ecut=    10.00 Ry     beta= 0.70
     Davidson diagonalization with overlap

---- Real-time Memory Report at c_bands before calling an iterative solver
           130 MiB given to the printing process from OS
             0 MiB allocation reported by mallinfo(arena+hblkhd)
          1167 MiB available memory on the node where the printing process lives
------------------
     ethr =  2.08E-08,  avg # of iterations =  1.0

     negative rho (up, down):  1.679E-01 0.000E+00

     total cpu time spent up to now is       21.8 secs

     total energy              =      -1.79869206 Ry
     estimated scf accuracy    <       0.00003922 Ry

     iteration # 98     ecut=    10.00 Ry     beta= 0.70
     Davidson diagonalization with overlap

---- Real-time Memory Report at c_bands before calling an iterative solver
           130 MiB given to the printing process from OS
             0 MiB allocation reported by mallinfo(arena+hblkhd)
          1167 MiB available memory on the node where the printing process lives
------------------
     ethr =  2.08E-08,  avg # of iterations =  3.0

     negative rho (up, down):  1.679E-01 0.000E+00

     total cpu time spent up to now is       22.0 secs

     total energy              =      -1.79870055 Ry
     estimated scf accuracy    <       0.00001304 Ry

     iteration # 99     ecut=    10.00 Ry     beta= 0.70
     Davidson diagonalization with overlap

---- Real-time Memory Report at c_bands before calling an iterative solver
           130 MiB given to the printing process from OS
             0 MiB allocation reported by mallinfo(arena+hblkhd)
          1167 MiB available memory on the node where the printing process lives
------------------
     ethr =  2.08E-08,  avg # of iterations =  3.0

     negative rho (up, down):  1.679E-01 0.000E+00

     total cpu time spent up to now is       22.3 secs

     total energy              =      -1.79870502 Ry
     estimated scf accuracy    <       0.00000037 Ry

     iteration #100     ecut=    10.00 Ry     beta= 0.70
     Davidson diagonalization with overlap

---- Real-time Memory Report at c_bands before calling an iterative solver
           130 MiB given to the printing process from OS
             0 MiB allocation reported by mallinfo(arena+hblkhd)
          1167 MiB available memory on the node where the printing process lives
------------------
     ethr =  1.85E-08,  avg # of iterations =  3.0

     negative rho (up, down):  1.679E-01 0.000E+00

     total cpu time spent up to now is       22.5 secs

     total energy              =      -1.79870561 Ry
     estimated scf accuracy    <       0.00000394 Ry

     End of self-consistent calculation

     convergence NOT achieved after 100 iterations: stopping

     Writing config to output data dir ./.save/
     Message from routine punch:
     wavefunctions written to file

     init_run     :      0.20s CPU      0.24s WALL (       1 calls)
     electrons    :     22.23s CPU     22.29s WALL (       1 calls)

     Called by init_run:
     wfcinit      :      0.02s CPU      0.02s WALL (       1 calls)
     wfcinit:atom :      0.00s CPU      0.00s WALL (       1 calls)
     wfcinit:wfcr :      0.01s CPU      0.01s WALL (       1 calls)
     potinit      :      0.12s CPU      0.15s WALL (       1 calls)
     hinit0       :      0.01s CPU      0.02s WALL (       1 calls)

     Called by electrons:
     c_bands      :      3.55s CPU      3.57s WALL (     101 calls)
     sum_band     :      2.60s CPU      2.60s WALL (     101 calls)
     v_of_rho     :     12.34s CPU     12.38s WALL (     101 calls)
     v_h          :      0.68s CPU      0.68s WALL (     101 calls)
     v_xc         :     11.66s CPU     11.70s WALL (     101 calls)
     newd         :      0.88s CPU      0.88s WALL (     101 calls)
     mix_rho      :      2.73s CPU      2.74s WALL (     101 calls)

     Called by c_bands:
     init_us_2    :      0.08s CPU      0.08s WALL (     203 calls)
     init_us_2:cp :      0.08s CPU      0.08s WALL (     203 calls)
     cegterg      :      3.49s CPU      3.52s WALL (     101 calls)

     Called by sum_band:
     sum_band:wei :      0.00s CPU      0.00s WALL (     101 calls)
     sum_band:loo :      0.73s CPU      0.73s WALL (     101 calls)
     sum_band:buf :      0.00s CPU      0.00s WALL (     101 calls)
     sum_band:ini :      0.04s CPU      0.04s WALL (     101 calls)
     sum_band:cal :      0.01s CPU      0.01s WALL (     101 calls)
     sum_band:bec :      0.00s CPU      0.00s WALL (     101 calls)
     addusdens    :      0.23s CPU      0.24s WALL (     101 calls)
     addusd:skk   :      0.07s CPU      0.07s WALL (     101 calls)
     addusd:dgemm :      0.05s CPU      0.05s WALL (     101 calls)
     addusd:qvan2 :      0.06s CPU      0.06s WALL (     101 calls)

     Called by *egterg:
     cdiaghg      :      0.01s CPU      0.01s WALL (     304 calls)
     cegterg:over :      0.04s CPU      0.04s WALL (     204 calls)
     cegterg:upda :      0.03s CPU      0.03s WALL (     204 calls)
     cegterg:last :      0.05s CPU      0.05s WALL (     175 calls)
     h_psi        :      3.29s CPU      3.31s WALL (     306 calls)
     s_psi        :      0.02s CPU      0.02s WALL (     306 calls)
     g_psi        :      0.01s CPU      0.02s WALL (     204 calls)

     Called by h_psi:
     h_psi:calbec :      0.02s CPU      0.02s WALL (     306 calls)
     vloc_psi     :      3.24s CPU      3.26s WALL (     306 calls)
     add_vuspsi   :      0.02s CPU      0.02s WALL (     306 calls)

     General routines
     calbec       :      0.03s CPU      0.03s WALL (     407 calls)
     fft          :      5.80s CPU      5.81s WALL (    1112 calls)
     ffts         :      0.53s CPU      0.53s WALL (     101 calls)
     fftw         :      3.50s CPU      3.52s WALL (    1220 calls)
     davcio       :      0.00s CPU      0.01s WALL (      19 calls)


     PWSCF        :     22.45s CPU     22.56s WALL


   This run was terminated on:  22:19:56  28Feb2022            

=------------------------------------------------------------------------------=
   JOB DONE.
=------------------------------------------------------------------------------=
