
     Program PWSCF v.7.0 starts on 28Feb2022 at  3: 6: 3 

     This program is part of the open-source Quantum ESPRESSO suite
     for quantum simulation of materials; please cite
         "P. Giannozzi et al., J. Phys.:Condens. Matter 21 395502 (2009);
         "P. Giannozzi et al., J. Phys.:Condens. Matter 29 465901 (2017);
         "P. Giannozzi et al., J. Chem. Phys. 152 154105 (2020);
          URL http://www.quantum-espresso.org", 
     in publications or presentations arising from this work. More details at
     http://www.quantum-espresso.org/quote

     Serial version
     556 MiB available memory on the printing compute node when the environment starts

     Waiting for input...
     Reading input from standard input

     Current dimensions of program PWSCF are:
     Max number of different atomic species (ntypx) = 10
     Max number of k-points (npk) =  40000
     Max angular momentum in pseudopotentials (lmaxx) =  4

     File ./.update deleted, as requested

     File ./.bfgs deleted, as requested

    ============================================================
    |  pseudopotential report for atomic species:  1           |
    |        pseudo potential version   7   3   2              |
    ------------------------------------------------------------
    |  hydrogen            PBE                  exchange-corr  |
    |  z =   1.    zv( 1) =   1.    exfact =   5.00000         |
    |  ifpcor =  0           atomic energy =  -0.91772 Ry      |
    |  index    orbital      occupation    energy              |
    |    1        100           1.00       -0.48               |
    |  rinner =  0.5000                                        |
    |    new generation scheme:                                |
    |    nbeta =  1     kkbeta =  271     rcloc =    0.6000    |
    |    ibeta    l     epsilon   rcut                         |
    |      1       0      -0.48   0.80                         |
    ============================================================

     IMPORTANT: XC functional enforced from input :
     Exchange-correlation= BLYP
                           (   1   3   1   3   0   0   0)
     Any further DFT definition will be discarded
     Please, verify this is what you really want


     G-vector sticks info
     --------------------
     sticks:   dense  smooth     PW     G-vecs:    dense   smooth      PW
     Sum        4281    4281   1185               211657   211657   30551

     Using Slab Decomposition



     bravais-lattice index     =            1
     lattice parameter (alat)  =      30.0000  a.u.
     unit-cell volume          =   27000.0000 (a.u.)^3
     number of atoms/cell      =            2
     number of atomic types    =            1
     number of electrons       =         2.00
     number of Kohn-Sham states=            2
     kinetic-energy cutoff     =      15.0000  Ry
     charge density cutoff     =      60.0000  Ry
     scf convergence threshold =      1.0E-08
     mixing beta               =       0.7000
     number of iterations used =            8  plain     mixing
     energy convergence thresh.=      1.0E-04
     force convergence thresh. =      1.0E-03
     Exchange-correlation= BLYP
                           (   1   3   1   3   0   0   0)
     nstep                     =           50


     celldm(1)=  30.000000  celldm(2)=   0.000000  celldm(3)=   0.000000
     celldm(4)=   0.000000  celldm(5)=   0.000000  celldm(6)=   0.000000

     crystal axes: (cart. coord. in units of alat)
               a(1) = (   1.000000   0.000000   0.000000 )  
               a(2) = (   0.000000   1.000000   0.000000 )  
               a(3) = (   0.000000   0.000000   1.000000 )  

     reciprocal axes: (cart. coord. in units 2 pi/alat)
               b(1) = (  1.000000  0.000000  0.000000 )  
               b(2) = (  0.000000  1.000000  0.000000 )  
               b(3) = (  0.000000  0.000000  1.000000 )  


     PseudoPot. # 1 for hy read from file:
     /root/q-e/pseudo/H_US.van
     MD5 check sum: a9a9bfe98ff56cf4de197d71fc46bb44
     Pseudo is Ultrasoft, Zval =  1.0
     Generated by Vanderbilt code, v. 7.3.2
     Using radial grid of  399 points,  1 beta functions with: 
                l(1) =   0
     Q(r) pseudized with  8 coefficients,  rinner =    0.500

     atomic species   valence    mass     pseudopotential
        H              1.00     1.00784     hy( 1.00)

      8 Sym. Ops. (no inversion) found


                                    s                        frac. trans.

      isym =  1     identity                                     

 cryst.   s( 1) = (     1          0          0      )
                  (     0          1          0      )
                  (     0          0          1      )

 cart.    s( 1) = (  1.0000000  0.0000000  0.0000000 )
                  (  0.0000000  1.0000000  0.0000000 )
                  (  0.0000000  0.0000000  1.0000000 )


      isym =  2     180 deg rotation - cart. axis [1,0,0]        

 cryst.   s( 2) = (     1          0          0      )
                  (     0         -1          0      )
                  (     0          0         -1      )

 cart.    s( 2) = (  1.0000000  0.0000000  0.0000000 )
                  (  0.0000000 -1.0000000  0.0000000 )
                  (  0.0000000  0.0000000 -1.0000000 )


      isym =  3      90 deg rotation - cart. axis [-1,0,0]       

 cryst.   s( 3) = (     1          0          0      )
                  (     0          0         -1      )
                  (     0          1          0      )

 cart.    s( 3) = (  1.0000000  0.0000000  0.0000000 )
                  (  0.0000000  0.0000000  1.0000000 )
                  (  0.0000000 -1.0000000  0.0000000 )


      isym =  4      90 deg rotation - cart. axis [1,0,0]        

 cryst.   s( 4) = (     1          0          0      )
                  (     0          0          1      )
                  (     0         -1          0      )

 cart.    s( 4) = (  1.0000000  0.0000000  0.0000000 )
                  (  0.0000000  0.0000000 -1.0000000 )
                  (  0.0000000  1.0000000  0.0000000 )


      isym =  5     inv. 180 deg rotation - cart. axis [0,0,1]   

 cryst.   s( 5) = (     1          0          0      )
                  (     0          1          0      )
                  (     0          0         -1      )

 cart.    s( 5) = (  1.0000000  0.0000000  0.0000000 )
                  (  0.0000000  1.0000000  0.0000000 )
                  (  0.0000000  0.0000000 -1.0000000 )


      isym =  6     inv. 180 deg rotation - cart. axis [0,1,0]   

 cryst.   s( 6) = (     1          0          0      )
                  (     0         -1          0      )
                  (     0          0          1      )

 cart.    s( 6) = (  1.0000000  0.0000000  0.0000000 )
                  (  0.0000000 -1.0000000  0.0000000 )
                  (  0.0000000  0.0000000  1.0000000 )


      isym =  7     inv. 180 deg rotation - cart. axis [0,1,1]   

 cryst.   s( 7) = (     1          0          0      )
                  (     0          0         -1      )
                  (     0         -1          0      )

 cart.    s( 7) = (  1.0000000  0.0000000  0.0000000 )
                  (  0.0000000  0.0000000 -1.0000000 )
                  (  0.0000000 -1.0000000  0.0000000 )


      isym =  8     inv. 180 deg rotation - cart. axis [0,1,-1]  

 cryst.   s( 8) = (     1          0          0      )
                  (     0          0          1      )
                  (     0          1          0      )

 cart.    s( 8) = (  1.0000000  0.0000000  0.0000000 )
                  (  0.0000000  0.0000000  1.0000000 )
                  (  0.0000000  1.0000000  0.0000000 )


     point group C_4v (4mm) 
     there are  5 classes
     the character table:

       E     2C4   C2    2s_v  2s_d 
A_1    1.00  1.00  1.00  1.00  1.00
A_2    1.00  1.00  1.00 -1.00 -1.00
B_1    1.00 -1.00  1.00  1.00 -1.00
B_2    1.00 -1.00  1.00 -1.00  1.00
E      2.00  0.00 -2.00  0.00  0.00

     the symmetry operations in each class and the name of the first element:

     E        1
          identity                                               
     2C4      3    4
           90 deg rotation - cart. axis [-1,0,0]                 
     C2       2
          180 deg rotation - cart. axis [1,0,0]                  
     2s_v     5    6
          inv. 180 deg rotation - cart. axis [0,0,1]             
     2s_d     7    8
          inv. 180 deg rotation - cart. axis [0,1,1]             

   Cartesian axes

     site n.     atom                  positions (alat units)
         1           H   tau(   1) = (   0.0000000   0.0000000   0.0000000  )
         2           H   tau(   2) = (   0.0503927   0.0000000   0.0000000  )

   Crystallographic axes

     site n.     atom                  positions (cryst. coord.)
         1           H   tau(   1) = (  0.0000000  0.0000000  0.0000000  )
         2           H   tau(   2) = (  0.0503927  0.0000000  0.0000000  )

     number of k points=     1
                       cart. coord. in units 2pi/alat
        k(    1) = (  -0.5000000  -0.5000000  -0.5000000), wk =   2.0000000

                       cryst. coord.
        k(    1) = (  -0.5000000  -0.5000000  -0.5000000), wk =   2.0000000

     Dense  grid:   211657 G-vectors     FFT dimensions: (  75,  75,  75)

     Dynamical RAM for                 wfc:       0.81 MB

     Dynamical RAM for     wfc (w. buffer):       0.81 MB

     Dynamical RAM for           str. fact:       3.23 MB

     Dynamical RAM for           local pot:       0.00 MB

     Dynamical RAM for          nlocal pot:       0.81 MB

     Dynamical RAM for                qrad:       0.01 MB

     Dynamical RAM for          rho,v,vnew:      19.34 MB

     Dynamical RAM for               rhoin:       6.45 MB

     Dynamical RAM for            rho*nmix:      51.67 MB

     Dynamical RAM for           G-vectors:      13.73 MB

     Dynamical RAM for          h,s,v(r/c):       0.00 MB

     Dynamical RAM for          <psi|beta>:       0.00 MB

     Dynamical RAM for                 psi:       1.62 MB

     Dynamical RAM for                hpsi:       1.62 MB

     Dynamical RAM for                spsi:       1.62 MB

     Dynamical RAM for      wfcinit/wfcrot:       1.62 MB

     Dynamical RAM for           addusdens:      19.38 MB

     Dynamical RAM for          addusforce:      27.45 MB

     Estimated static dynamical RAM per process >      66.92 MB

     Estimated max dynamical RAM per process >     146.05 MB

     Initial potential from superposition of free atoms

     starting charge       2.0000, renormalised to       2.0000

     negative rho (up, down):  9.846E-02 0.000E+00
     Starting wfcs are    2 randomized atomic wfcs

     total cpu time spent up to now is        0.4 secs

     Self-consistent Calculation

     iteration #  1     ecut=    15.00 Ry     beta= 0.70
     Davidson diagonalization with overlap

---- Real-time Memory Report at c_bands before calling an iterative solver
           128 MiB given to the printing process from OS
             0 MiB allocation reported by mallinfo(arena+hblkhd)
           471 MiB available memory on the node where the printing process lives
------------------
     ethr =  1.00E-02,  avg # of iterations =  5.0

     negative rho (up, down):  1.553E-01 0.000E+00

     total cpu time spent up to now is        0.8 secs

     total energy              =      -2.29767020 Ry
     estimated scf accuracy    <       0.10538846 Ry

     iteration #  2     ecut=    15.00 Ry     beta= 0.70
     Davidson diagonalization with overlap

---- Real-time Memory Report at c_bands before calling an iterative solver
           156 MiB given to the printing process from OS
             0 MiB allocation reported by mallinfo(arena+hblkhd)
           413 MiB available memory on the node where the printing process lives
------------------
     ethr =  5.27E-03,  avg # of iterations =  1.0

     negative rho (up, down):  1.677E-01 0.000E+00

     total cpu time spent up to now is        1.2 secs

     total energy              =      -2.29813311 Ry
     estimated scf accuracy    <       0.00127967 Ry

     iteration #  3     ecut=    15.00 Ry     beta= 0.70
     Davidson diagonalization with overlap

---- Real-time Memory Report at c_bands before calling an iterative solver
           163 MiB given to the printing process from OS
             0 MiB allocation reported by mallinfo(arena+hblkhd)
           406 MiB available memory on the node where the printing process lives
------------------
     ethr =  6.40E-05,  avg # of iterations = 10.0

     negative rho (up, down):  1.683E-01 0.000E+00

     total cpu time spent up to now is        1.7 secs

     total energy              =      -2.29810032 Ry
     estimated scf accuracy    <       0.00000884 Ry

     iteration #  4     ecut=    15.00 Ry     beta= 0.70
     Davidson diagonalization with overlap

---- Real-time Memory Report at c_bands before calling an iterative solver
           170 MiB given to the printing process from OS
             0 MiB allocation reported by mallinfo(arena+hblkhd)
           400 MiB available memory on the node where the printing process lives
------------------
     ethr =  4.42E-07,  avg # of iterations =  5.0

     negative rho (up, down):  1.686E-01 0.000E+00

     total cpu time spent up to now is        2.1 secs

     total energy              =      -2.29793061 Ry
     estimated scf accuracy    <       0.00000030 Ry

     iteration #  5     ecut=    15.00 Ry     beta= 0.70
     Davidson diagonalization with overlap

---- Real-time Memory Report at c_bands before calling an iterative solver
           176 MiB given to the printing process from OS
             0 MiB allocation reported by mallinfo(arena+hblkhd)
           393 MiB available memory on the node where the printing process lives
------------------
     ethr =  1.52E-08,  avg # of iterations =  3.0

     negative rho (up, down):  1.686E-01 0.000E+00

     total cpu time spent up to now is        2.5 secs

     total energy              =      -2.29792653 Ry
     estimated scf accuracy    <       0.00000008 Ry

     iteration #  6     ecut=    15.00 Ry     beta= 0.70
     Davidson diagonalization with overlap

---- Real-time Memory Report at c_bands before calling an iterative solver
           183 MiB given to the printing process from OS
             0 MiB allocation reported by mallinfo(arena+hblkhd)
           387 MiB available memory on the node where the printing process lives
------------------
     ethr =  3.96E-09,  avg # of iterations =  4.0

     negative rho (up, down):  1.686E-01 0.000E+00

     total cpu time spent up to now is        2.9 secs

     total energy              =      -2.29793092 Ry
     estimated scf accuracy    <       0.00000004 Ry

     iteration #  7     ecut=    15.00 Ry     beta= 0.70
     Davidson diagonalization with overlap

---- Real-time Memory Report at c_bands before calling an iterative solver
           189 MiB given to the printing process from OS
             0 MiB allocation reported by mallinfo(arena+hblkhd)
           381 MiB available memory on the node where the printing process lives
------------------
     ethr =  1.88E-09,  avg # of iterations =  2.0

     negative rho (up, down):  1.685E-01 0.000E+00

     total cpu time spent up to now is        3.3 secs

     total energy              =      -2.29797876 Ry
     estimated scf accuracy    <       0.00000003 Ry

     iteration #  8     ecut=    15.00 Ry     beta= 0.70
     Davidson diagonalization with overlap

---- Real-time Memory Report at c_bands before calling an iterative solver
           195 MiB given to the printing process from OS
             0 MiB allocation reported by mallinfo(arena+hblkhd)
           374 MiB available memory on the node where the printing process lives
------------------
     ethr =  1.72E-09,  avg # of iterations =  4.0

     negative rho (up, down):  1.685E-01 0.000E+00

     total cpu time spent up to now is        3.7 secs

     total energy              =      -2.29797717 Ry
     estimated scf accuracy    <       0.00000005 Ry

     iteration #  9     ecut=    15.00 Ry     beta= 0.70
     Davidson diagonalization with overlap

---- Real-time Memory Report at c_bands before calling an iterative solver
           202 MiB given to the printing process from OS
             0 MiB allocation reported by mallinfo(arena+hblkhd)
           368 MiB available memory on the node where the printing process lives
------------------
     ethr =  1.72E-09,  avg # of iterations =  3.0

     negative rho (up, down):  1.685E-01 0.000E+00

     total cpu time spent up to now is        4.1 secs

     total energy              =      -2.29797875 Ry
     estimated scf accuracy    <       0.00000005 Ry

     iteration # 10     ecut=    15.00 Ry     beta= 0.70
     Davidson diagonalization with overlap

---- Real-time Memory Report at c_bands before calling an iterative solver
           208 MiB given to the printing process from OS
             0 MiB allocation reported by mallinfo(arena+hblkhd)
           361 MiB available memory on the node where the printing process lives
------------------
     ethr =  1.72E-09,  avg # of iterations =  1.0

     negative rho (up, down):  1.685E-01 0.000E+00

     total cpu time spent up to now is        4.4 secs

     total energy              =      -2.29797862 Ry
     estimated scf accuracy    <       0.00000005 Ry

     iteration # 11     ecut=    15.00 Ry     beta= 0.70
     Davidson diagonalization with overlap

---- Real-time Memory Report at c_bands before calling an iterative solver
           208 MiB given to the printing process from OS
             0 MiB allocation reported by mallinfo(arena+hblkhd)
           361 MiB available memory on the node where the printing process lives
------------------
     ethr =  1.72E-09,  avg # of iterations =  1.0

     negative rho (up, down):  1.686E-01 0.000E+00

     total cpu time spent up to now is        4.8 secs

     total energy              =      -2.29793021 Ry
     estimated scf accuracy    <       0.00000005 Ry

     iteration # 12     ecut=    15.00 Ry     beta= 0.70
     Davidson diagonalization with overlap

---- Real-time Memory Report at c_bands before calling an iterative solver
           208 MiB given to the printing process from OS
             0 MiB allocation reported by mallinfo(arena+hblkhd)
           361 MiB available memory on the node where the printing process lives
------------------
     ethr =  1.72E-09,  avg # of iterations =  4.0

     negative rho (up, down):  1.686E-01 0.000E+00

     total cpu time spent up to now is        5.2 secs

     total energy              =      -2.29793771 Ry
     estimated scf accuracy    <       0.00000003 Ry

     iteration # 13     ecut=    15.00 Ry     beta= 0.70
     Davidson diagonalization with overlap

---- Real-time Memory Report at c_bands before calling an iterative solver
           208 MiB given to the printing process from OS
             0 MiB allocation reported by mallinfo(arena+hblkhd)
           361 MiB available memory on the node where the printing process lives
------------------
     ethr =  1.42E-09,  avg # of iterations =  3.0

     negative rho (up, down):  1.685E-01 0.000E+00

     total cpu time spent up to now is        5.6 secs

     End of self-consistent calculation

          k =-0.5000-0.5000-0.5000 ( 26344 PWs)   bands (ev):

   -10.3983  -1.5093

     occupation numbers 
     1.0000   0.0000

     highest occupied, lowest unoccupied level (ev):   -10.3983   -1.5093

!    total energy              =      -2.29795663 Ry
     estimated scf accuracy    <          4.9E-09 Ry

     The total energy is the sum of the following terms:
     one-electron contribution =      -4.07706282 Ry
     hartree contribution      =       2.19368989 Ry
     xc contribution           =      -1.35957629 Ry
     ewald contribution        =       0.94499259 Ry

     convergence has been achieved in  13 iterations

     Forces acting on atoms (cartesian axes, Ry/au):

     atom    1 type  1   force =     0.07301654    0.00000000    0.00000000
     atom    2 type  1   force =    -0.07301654    0.00000000    0.00000000
     The non-local contrib.  to forces
     atom    1 type  1   force =     0.09136182    0.00000000    0.00000000
     atom    2 type  1   force =    -0.09142042    0.00000000    0.00000000
     The ionic contribution  to forces
     atom    1 type  1   force =    -0.87461657   -0.00000000   -0.00000000
     atom    2 type  1   force =     0.87461657    0.00000000   -0.00000000
     The local contribution  to forces
     atom    1 type  1   force =     0.85633297    0.00000000    0.00000000
     atom    2 type  1   force =    -0.85655610    0.00000000    0.00000000
     The core correction contribution to forces
     atom    1 type  1   force =     0.00000000    0.00000000    0.00000000
     atom    2 type  1   force =     0.00000000    0.00000000    0.00000000
     The Hubbard contrib.    to forces
     atom    1 type  1   force =     0.00000000    0.00000000    0.00000000
     atom    2 type  1   force =     0.00000000    0.00000000    0.00000000
     The SCF correction term to forces
     atom    1 type  1   force =    -0.00038501   -0.00000000   -0.00000000
     atom    2 type  1   force =     0.00002008   -0.00000000   -0.00000000

     Total force =     0.103261     Total SCF correction =     0.000386

     BFGS Geometry Optimization
     Energy error            =      0.0E+00 Ry
     Gradient error          =      7.3E-02 Ry/Bohr

     number of scf cycles    =   1
     number of bfgs steps    =   0

     energy             new  =      -2.2979566315 Ry

     new trust radius        =       0.0730165380 bohr
     new conv_thr            =       0.0000000100 Ry


ATOMIC_POSITIONS (angstrom)
H             0.0386386879        0.0000000000        0.0000000000
H             0.7613613121        0.0000000000        0.0000000000



     Writing config-only to output data dir ./.save/
     NEW-OLD atomic charge density approx. for the potential

     negative rho (up, down):  1.645E-01 0.000E+00

     total cpu time spent up to now is        6.0 secs

     Self-consistent Calculation

     iteration #  1     ecut=    15.00 Ry     beta= 0.70
     Davidson diagonalization with overlap

---- Real-time Memory Report at c_bands before calling an iterative solver
           209 MiB given to the printing process from OS
             0 MiB allocation reported by mallinfo(arena+hblkhd)
           469 MiB available memory on the node where the printing process lives
------------------
     ethr =  1.00E-06,  avg # of iterations =  7.0

     negative rho (up, down):  1.776E-01 0.000E+00

     total cpu time spent up to now is        6.5 secs

     total energy              =      -2.29917684 Ry
     estimated scf accuracy    <       0.00153832 Ry

     iteration #  2     ecut=    15.00 Ry     beta= 0.70
     Davidson diagonalization with overlap

---- Real-time Memory Report at c_bands before calling an iterative solver
           209 MiB given to the printing process from OS
             0 MiB allocation reported by mallinfo(arena+hblkhd)
           411 MiB available memory on the node where the printing process lives
------------------
     ethr =  7.69E-05,  avg # of iterations =  1.0

     negative rho (up, down):  1.810E-01 0.000E+00

     total cpu time spent up to now is        6.8 secs

     total energy              =      -2.29747940 Ry
     estimated scf accuracy    <       0.00001846 Ry

     iteration #  3     ecut=    15.00 Ry     beta= 0.70
     Davidson diagonalization with overlap

---- Real-time Memory Report at c_bands before calling an iterative solver
           209 MiB given to the printing process from OS
             0 MiB allocation reported by mallinfo(arena+hblkhd)
           405 MiB available memory on the node where the printing process lives
------------------
     ethr =  9.23E-07,  avg # of iterations =  5.0

     negative rho (up, down):  1.818E-01 0.000E+00

     total cpu time spent up to now is        7.2 secs

     total energy              =      -2.29698832 Ry
     estimated scf accuracy    <       0.00000044 Ry

     iteration #  4     ecut=    15.00 Ry     beta= 0.70
     Davidson diagonalization with overlap

---- Real-time Memory Report at c_bands before calling an iterative solver
           209 MiB given to the printing process from OS
             0 MiB allocation reported by mallinfo(arena+hblkhd)
           399 MiB available memory on the node where the printing process lives
------------------
     ethr =  2.19E-08,  avg # of iterations =  2.0

     negative rho (up, down):  1.818E-01 0.000E+00

     total cpu time spent up to now is        7.6 secs

     total energy              =      -2.29698357 Ry
     estimated scf accuracy    <       0.00000003 Ry

     iteration #  5     ecut=    15.00 Ry     beta= 0.70
     Davidson diagonalization with overlap

---- Real-time Memory Report at c_bands before calling an iterative solver
           209 MiB given to the printing process from OS
             0 MiB allocation reported by mallinfo(arena+hblkhd)
           392 MiB available memory on the node where the printing process lives
------------------
     ethr =  1.28E-09,  avg # of iterations =  4.0

     negative rho (up, down):  1.818E-01 0.000E+00

     total cpu time spent up to now is        8.0 secs

     total energy              =      -2.29698945 Ry
     estimated scf accuracy    <       0.00000008 Ry

     iteration #  6     ecut=    15.00 Ry     beta= 0.70
     Davidson diagonalization with overlap

---- Real-time Memory Report at c_bands before calling an iterative solver
           209 MiB given to the printing process from OS
             0 MiB allocation reported by mallinfo(arena+hblkhd)
           386 MiB available memory on the node where the printing process lives
------------------
     ethr =  1.28E-09,  avg # of iterations =  3.0

     negative rho (up, down):  1.818E-01 0.000E+00

     total cpu time spent up to now is        8.4 secs

     total energy              =      -2.29698173 Ry
     estimated scf accuracy    <       0.00000006 Ry

     iteration #  7     ecut=    15.00 Ry     beta= 0.70
     Davidson diagonalization with overlap

---- Real-time Memory Report at c_bands before calling an iterative solver
           209 MiB given to the printing process from OS
             0 MiB allocation reported by mallinfo(arena+hblkhd)
           379 MiB available memory on the node where the printing process lives
------------------
     ethr =  1.28E-09,  avg # of iterations =  3.0

     negative rho (up, down):  1.818E-01 0.000E+00

     total cpu time spent up to now is        8.8 secs

     total energy              =      -2.29696826 Ry
     estimated scf accuracy    <       0.00000002 Ry

     iteration #  8     ecut=    15.00 Ry     beta= 0.70
     Davidson diagonalization with overlap

---- Real-time Memory Report at c_bands before calling an iterative solver
           209 MiB given to the printing process from OS
             0 MiB allocation reported by mallinfo(arena+hblkhd)
           373 MiB available memory on the node where the printing process lives
------------------
     ethr =  1.22E-09,  avg # of iterations =  3.0

     negative rho (up, down):  1.817E-01 0.000E+00

     total cpu time spent up to now is        9.2 secs

     total energy              =      -2.29702804 Ry
     estimated scf accuracy    <       0.00000012 Ry

     iteration #  9     ecut=    15.00 Ry     beta= 0.70
     Davidson diagonalization with overlap

---- Real-time Memory Report at c_bands before calling an iterative solver
           209 MiB given to the printing process from OS
             0 MiB allocation reported by mallinfo(arena+hblkhd)
           366 MiB available memory on the node where the printing process lives
------------------
     ethr =  1.22E-09,  avg # of iterations =  4.0

     negative rho (up, down):  1.817E-01 0.000E+00

     total cpu time spent up to now is        9.6 secs

     total energy              =      -2.29704269 Ry
     estimated scf accuracy    <       0.00000009 Ry

     iteration # 10     ecut=    15.00 Ry     beta= 0.70
     Davidson diagonalization with overlap

---- Real-time Memory Report at c_bands before calling an iterative solver
           211 MiB given to the printing process from OS
             0 MiB allocation reported by mallinfo(arena+hblkhd)
           360 MiB available memory on the node where the printing process lives
------------------
     ethr =  1.22E-09,  avg # of iterations =  3.0

     negative rho (up, down):  1.816E-01 0.000E+00

     total cpu time spent up to now is       10.0 secs

     total energy              =      -2.29706768 Ry
     estimated scf accuracy    <       0.00000002 Ry

     iteration # 11     ecut=    15.00 Ry     beta= 0.70
     Davidson diagonalization with overlap

---- Real-time Memory Report at c_bands before calling an iterative solver
           211 MiB given to the printing process from OS
             0 MiB allocation reported by mallinfo(arena+hblkhd)
           360 MiB available memory on the node where the printing process lives
------------------
     ethr =  9.19E-10,  avg # of iterations =  4.0

     negative rho (up, down):  1.817E-01 0.000E+00

     total cpu time spent up to now is       10.4 secs

     total energy              =      -2.29705158 Ry
     estimated scf accuracy    <       0.00000038 Ry

     iteration # 12     ecut=    15.00 Ry     beta= 0.70
     Davidson diagonalization with overlap

---- Real-time Memory Report at c_bands before calling an iterative solver
           211 MiB given to the printing process from OS
             0 MiB allocation reported by mallinfo(arena+hblkhd)
           360 MiB available memory on the node where the printing process lives
------------------
     ethr =  9.19E-10,  avg # of iterations =  3.0

     negative rho (up, down):  1.817E-01 0.000E+00

     total cpu time spent up to now is       10.8 secs

     total energy              =      -2.29707229 Ry
     estimated scf accuracy    <       0.00000010 Ry

     iteration # 13     ecut=    15.00 Ry     beta= 0.70
     Davidson diagonalization with overlap

---- Real-time Memory Report at c_bands before calling an iterative solver
           211 MiB given to the printing process from OS
             0 MiB allocation reported by mallinfo(arena+hblkhd)
           360 MiB available memory on the node where the printing process lives
------------------
     ethr =  9.19E-10,  avg # of iterations =  4.0

     negative rho (up, down):  1.817E-01 0.000E+00

     total cpu time spent up to now is       11.2 secs

     total energy              =      -2.29703108 Ry
     estimated scf accuracy    <       0.00000028 Ry

     iteration # 14     ecut=    15.00 Ry     beta= 0.70
     Davidson diagonalization with overlap

---- Real-time Memory Report at c_bands before calling an iterative solver
           211 MiB given to the printing process from OS
             0 MiB allocation reported by mallinfo(arena+hblkhd)
           360 MiB available memory on the node where the printing process lives
------------------
     ethr =  9.19E-10,  avg # of iterations =  3.0

     negative rho (up, down):  1.817E-01 0.000E+00

     total cpu time spent up to now is       11.6 secs

     total energy              =      -2.29702559 Ry
     estimated scf accuracy    <       0.00000003 Ry

     iteration # 15     ecut=    15.00 Ry     beta= 0.70
     Davidson diagonalization with overlap

---- Real-time Memory Report at c_bands before calling an iterative solver
           211 MiB given to the printing process from OS
             0 MiB allocation reported by mallinfo(arena+hblkhd)
           360 MiB available memory on the node where the printing process lives
------------------
     ethr =  9.19E-10,  avg # of iterations =  3.0

     negative rho (up, down):  1.817E-01 0.000E+00

     total cpu time spent up to now is       12.0 secs

     total energy              =      -2.29702177 Ry
     estimated scf accuracy    <       0.00000003 Ry

     iteration # 16     ecut=    15.00 Ry     beta= 0.70
     Davidson diagonalization with overlap

---- Real-time Memory Report at c_bands before calling an iterative solver
           211 MiB given to the printing process from OS
             0 MiB allocation reported by mallinfo(arena+hblkhd)
           360 MiB available memory on the node where the printing process lives
------------------
     ethr =  9.19E-10,  avg # of iterations =  4.0

     negative rho (up, down):  1.817E-01 0.000E+00

     total cpu time spent up to now is       12.5 secs

     total energy              =      -2.29701657 Ry
     estimated scf accuracy    <       0.00000012 Ry

     iteration # 17     ecut=    15.00 Ry     beta= 0.70
     Davidson diagonalization with overlap

---- Real-time Memory Report at c_bands before calling an iterative solver
           211 MiB given to the printing process from OS
             0 MiB allocation reported by mallinfo(arena+hblkhd)
           360 MiB available memory on the node where the printing process lives
------------------
     ethr =  9.19E-10,  avg # of iterations =  4.0

     negative rho (up, down):  1.817E-01 0.000E+00

     total cpu time spent up to now is       12.9 secs

     total energy              =      -2.29701944 Ry
     estimated scf accuracy    <       0.00000002 Ry

     iteration # 18     ecut=    15.00 Ry     beta= 0.70
     Davidson diagonalization with overlap

---- Real-time Memory Report at c_bands before calling an iterative solver
           211 MiB given to the printing process from OS
             0 MiB allocation reported by mallinfo(arena+hblkhd)
           360 MiB available memory on the node where the printing process lives
------------------
     ethr =  9.19E-10,  avg # of iterations =  3.0

     negative rho (up, down):  1.817E-01 0.000E+00

     total cpu time spent up to now is       13.3 secs

     total energy              =      -2.29702361 Ry
     estimated scf accuracy    <       0.00000003 Ry

     iteration # 19     ecut=    15.00 Ry     beta= 0.70
     Davidson diagonalization with overlap

---- Real-time Memory Report at c_bands before calling an iterative solver
           211 MiB given to the printing process from OS
             0 MiB allocation reported by mallinfo(arena+hblkhd)
           360 MiB available memory on the node where the printing process lives
------------------
     ethr =  9.19E-10,  avg # of iterations =  3.0

     negative rho (up, down):  1.817E-01 0.000E+00

     total cpu time spent up to now is       13.7 secs

     total energy              =      -2.29702753 Ry
     estimated scf accuracy    <       0.00000003 Ry

     iteration # 20     ecut=    15.00 Ry     beta= 0.70
     Davidson diagonalization with overlap

---- Real-time Memory Report at c_bands before calling an iterative solver
           211 MiB given to the printing process from OS
             0 MiB allocation reported by mallinfo(arena+hblkhd)
           360 MiB available memory on the node where the printing process lives
------------------
     ethr =  9.19E-10,  avg # of iterations =  3.0

     negative rho (up, down):  1.817E-01 0.000E+00

     total cpu time spent up to now is       14.1 secs

     total energy              =      -2.29702426 Ry
     estimated scf accuracy    <       0.00000004 Ry

     iteration # 21     ecut=    15.00 Ry     beta= 0.70
     Davidson diagonalization with overlap

---- Real-time Memory Report at c_bands before calling an iterative solver
           211 MiB given to the printing process from OS
             0 MiB allocation reported by mallinfo(arena+hblkhd)
           360 MiB available memory on the node where the printing process lives
------------------
     ethr =  9.19E-10,  avg # of iterations =  3.0

     negative rho (up, down):  1.817E-01 0.000E+00

     total cpu time spent up to now is       14.5 secs

     total energy              =      -2.29702459 Ry
     estimated scf accuracy    <       0.00000003 Ry

     iteration # 22     ecut=    15.00 Ry     beta= 0.70
     Davidson diagonalization with overlap

---- Real-time Memory Report at c_bands before calling an iterative solver
           211 MiB given to the printing process from OS
             0 MiB allocation reported by mallinfo(arena+hblkhd)
           360 MiB available memory on the node where the printing process lives
------------------
     ethr =  9.19E-10,  avg # of iterations =  1.0

     negative rho (up, down):  1.817E-01 0.000E+00

     total cpu time spent up to now is       14.8 secs

     total energy              =      -2.29702470 Ry
     estimated scf accuracy    <       0.00000003 Ry

     iteration # 23     ecut=    15.00 Ry     beta= 0.70
     Davidson diagonalization with overlap

---- Real-time Memory Report at c_bands before calling an iterative solver
           211 MiB given to the printing process from OS
             0 MiB allocation reported by mallinfo(arena+hblkhd)
           360 MiB available memory on the node where the printing process lives
------------------
     ethr =  9.19E-10,  avg # of iterations =  1.0

     negative rho (up, down):  1.817E-01 0.000E+00

     total cpu time spent up to now is       15.2 secs

     total energy              =      -2.29701768 Ry
     estimated scf accuracy    <       0.00000003 Ry

     iteration # 24     ecut=    15.00 Ry     beta= 0.70
     Davidson diagonalization with overlap

---- Real-time Memory Report at c_bands before calling an iterative solver
           211 MiB given to the printing process from OS
             0 MiB allocation reported by mallinfo(arena+hblkhd)
           360 MiB available memory on the node where the printing process lives
------------------
     ethr =  9.19E-10,  avg # of iterations =  3.0

     negative rho (up, down):  1.817E-01 0.000E+00

     total cpu time spent up to now is       15.6 secs

     total energy              =      -2.29702153 Ry
     estimated scf accuracy    <       0.00000002 Ry

     iteration # 25     ecut=    15.00 Ry     beta= 0.70
     Davidson diagonalization with overlap

---- Real-time Memory Report at c_bands before calling an iterative solver
           211 MiB given to the printing process from OS
             0 MiB allocation reported by mallinfo(arena+hblkhd)
           360 MiB available memory on the node where the printing process lives
------------------
     ethr =  7.61E-10,  avg # of iterations =  3.0

     negative rho (up, down):  1.818E-01 0.000E+00

     total cpu time spent up to now is       16.0 secs

     total energy              =      -2.29699485 Ry
     estimated scf accuracy    <       0.00000002 Ry

     iteration # 26     ecut=    15.00 Ry     beta= 0.70
     Davidson diagonalization with overlap

---- Real-time Memory Report at c_bands before calling an iterative solver
           211 MiB given to the printing process from OS
             0 MiB allocation reported by mallinfo(arena+hblkhd)
           360 MiB available memory on the node where the printing process lives
------------------
     ethr =  7.55E-10,  avg # of iterations =  3.0

     negative rho (up, down):  1.818E-01 0.000E+00

     total cpu time spent up to now is       16.4 secs

     total energy              =      -2.29700139 Ry
     estimated scf accuracy    <       0.00000002 Ry

     iteration # 27     ecut=    15.00 Ry     beta= 0.70
     Davidson diagonalization with overlap

---- Real-time Memory Report at c_bands before calling an iterative solver
           211 MiB given to the printing process from OS
             0 MiB allocation reported by mallinfo(arena+hblkhd)
           360 MiB available memory on the node where the printing process lives
------------------
     ethr =  7.55E-10,  avg # of iterations =  3.0

     negative rho (up, down):  1.818E-01 0.000E+00

     total cpu time spent up to now is       16.8 secs

     total energy              =      -2.29700378 Ry
     estimated scf accuracy    <       0.00000002 Ry

     iteration # 28     ecut=    15.00 Ry     beta= 0.70
     Davidson diagonalization with overlap

---- Real-time Memory Report at c_bands before calling an iterative solver
           211 MiB given to the printing process from OS
             0 MiB allocation reported by mallinfo(arena+hblkhd)
           360 MiB available memory on the node where the printing process lives
------------------
     ethr =  7.55E-10,  avg # of iterations =  3.0

     negative rho (up, down):  1.817E-01 0.000E+00

     total cpu time spent up to now is       17.2 secs

     total energy              =      -2.29701843 Ry
     estimated scf accuracy    <       0.00000003 Ry

     iteration # 29     ecut=    15.00 Ry     beta= 0.70
     Davidson diagonalization with overlap

---- Real-time Memory Report at c_bands before calling an iterative solver
           211 MiB given to the printing process from OS
             0 MiB allocation reported by mallinfo(arena+hblkhd)
           360 MiB available memory on the node where the printing process lives
------------------
     ethr =  7.55E-10,  avg # of iterations =  4.0

     negative rho (up, down):  1.818E-01 0.000E+00

     total cpu time spent up to now is       17.7 secs

     total energy              =      -2.29697718 Ry
     estimated scf accuracy    <       0.00000002 Ry

     iteration # 30     ecut=    15.00 Ry     beta= 0.70
     Davidson diagonalization with overlap

---- Real-time Memory Report at c_bands before calling an iterative solver
           211 MiB given to the printing process from OS
             0 MiB allocation reported by mallinfo(arena+hblkhd)
           360 MiB available memory on the node where the printing process lives
------------------
     ethr =  7.55E-10,  avg # of iterations =  3.0

     negative rho (up, down):  1.817E-01 0.000E+00

     total cpu time spent up to now is       18.1 secs

     total energy              =      -2.29702959 Ry
     estimated scf accuracy    <       0.00000004 Ry

     iteration # 31     ecut=    15.00 Ry     beta= 0.70
     Davidson diagonalization with overlap

---- Real-time Memory Report at c_bands before calling an iterative solver
           211 MiB given to the printing process from OS
             0 MiB allocation reported by mallinfo(arena+hblkhd)
           360 MiB available memory on the node where the printing process lives
------------------
     ethr =  7.55E-10,  avg # of iterations =  3.0

     negative rho (up, down):  1.817E-01 0.000E+00

     total cpu time spent up to now is       18.5 secs

     total energy              =      -2.29700591 Ry
     estimated scf accuracy    <       0.00000004 Ry

     iteration # 32     ecut=    15.00 Ry     beta= 0.70
     Davidson diagonalization with overlap

---- Real-time Memory Report at c_bands before calling an iterative solver
           211 MiB given to the printing process from OS
             0 MiB allocation reported by mallinfo(arena+hblkhd)
           360 MiB available memory on the node where the printing process lives
------------------
     ethr =  7.55E-10,  avg # of iterations =  4.0

     negative rho (up, down):  1.817E-01 0.000E+00

     total cpu time spent up to now is       18.9 secs

     total energy              =      -2.29701067 Ry
     estimated scf accuracy    <       0.00000008 Ry

     iteration # 33     ecut=    15.00 Ry     beta= 0.70
     Davidson diagonalization with overlap

---- Real-time Memory Report at c_bands before calling an iterative solver
           211 MiB given to the printing process from OS
             0 MiB allocation reported by mallinfo(arena+hblkhd)
           360 MiB available memory on the node where the printing process lives
------------------
     ethr =  7.55E-10,  avg # of iterations =  2.0

     negative rho (up, down):  1.817E-01 0.000E+00

     total cpu time spent up to now is       19.2 secs

     total energy              =      -2.29702599 Ry
     estimated scf accuracy    <       0.00000008 Ry

     iteration # 34     ecut=    15.00 Ry     beta= 0.70
     Davidson diagonalization with overlap

---- Real-time Memory Report at c_bands before calling an iterative solver
           211 MiB given to the printing process from OS
             0 MiB allocation reported by mallinfo(arena+hblkhd)
           360 MiB available memory on the node where the printing process lives
------------------
     ethr =  7.55E-10,  avg # of iterations =  4.0

     negative rho (up, down):  1.817E-01 0.000E+00

     total cpu time spent up to now is       19.7 secs

     total energy              =      -2.29703285 Ry
     estimated scf accuracy    <       0.00000004 Ry

     iteration # 35     ecut=    15.00 Ry     beta= 0.70
     Davidson diagonalization with overlap

---- Real-time Memory Report at c_bands before calling an iterative solver
           211 MiB given to the printing process from OS
             0 MiB allocation reported by mallinfo(arena+hblkhd)
           360 MiB available memory on the node where the printing process lives
------------------
     ethr =  7.55E-10,  avg # of iterations =  3.0

     negative rho (up, down):  1.817E-01 0.000E+00

     total cpu time spent up to now is       20.1 secs

     total energy              =      -2.29701230 Ry
     estimated scf accuracy    <       0.00000004 Ry

     iteration # 36     ecut=    15.00 Ry     beta= 0.70
     Davidson diagonalization with overlap

---- Real-time Memory Report at c_bands before calling an iterative solver
           211 MiB given to the printing process from OS
             0 MiB allocation reported by mallinfo(arena+hblkhd)
           360 MiB available memory on the node where the printing process lives
------------------
     ethr =  7.55E-10,  avg # of iterations =  4.0

     negative rho (up, down):  1.817E-01 0.000E+00

     total cpu time spent up to now is       20.5 secs

     total energy              =      -2.29701176 Ry
     estimated scf accuracy    <       0.00000016 Ry

     iteration # 37     ecut=    15.00 Ry     beta= 0.70
     Davidson diagonalization with overlap

---- Real-time Memory Report at c_bands before calling an iterative solver
           211 MiB given to the printing process from OS
             0 MiB allocation reported by mallinfo(arena+hblkhd)
           360 MiB available memory on the node where the printing process lives
------------------
     ethr =  7.55E-10,  avg # of iterations =  3.0

     negative rho (up, down):  1.817E-01 0.000E+00

     total cpu time spent up to now is       20.9 secs

     total energy              =      -2.29700969 Ry
     estimated scf accuracy    <       0.00000011 Ry

     iteration # 38     ecut=    15.00 Ry     beta= 0.70
     Davidson diagonalization with overlap

---- Real-time Memory Report at c_bands before calling an iterative solver
           211 MiB given to the printing process from OS
             0 MiB allocation reported by mallinfo(arena+hblkhd)
           360 MiB available memory on the node where the printing process lives
------------------
     ethr =  7.55E-10,  avg # of iterations =  4.0

     negative rho (up, down):  1.817E-01 0.000E+00

     total cpu time spent up to now is       21.3 secs

     total energy              =      -2.29701694 Ry
     estimated scf accuracy    <       0.00000001 Ry

     iteration # 39     ecut=    15.00 Ry     beta= 0.70
     Davidson diagonalization with overlap

---- Real-time Memory Report at c_bands before calling an iterative solver
           211 MiB given to the printing process from OS
             0 MiB allocation reported by mallinfo(arena+hblkhd)
           360 MiB available memory on the node where the printing process lives
------------------
     ethr =  6.76E-10,  avg # of iterations =  1.0

     negative rho (up, down):  1.817E-01 0.000E+00

     total cpu time spent up to now is       21.7 secs

     total energy              =      -2.29701041 Ry
     estimated scf accuracy    <       0.00000002 Ry

     iteration # 40     ecut=    15.00 Ry     beta= 0.70
     Davidson diagonalization with overlap

---- Real-time Memory Report at c_bands before calling an iterative solver
           211 MiB given to the printing process from OS
             0 MiB allocation reported by mallinfo(arena+hblkhd)
           360 MiB available memory on the node where the printing process lives
------------------
     ethr =  6.76E-10,  avg # of iterations =  3.0

     negative rho (up, down):  1.818E-01 0.000E+00

     total cpu time spent up to now is       22.0 secs

     End of self-consistent calculation

          k =-0.5000-0.5000-0.5000 ( 26344 PWs)   bands (ev):

   -10.7899  -1.4442

     occupation numbers 
     1.0000   0.0000

     highest occupied, lowest unoccupied level (ev):   -10.7899   -1.4442

!    total energy              =      -2.29701255 Ry
     estimated scf accuracy    <          7.8E-09 Ry

     The total energy is the sum of the following terms:
     one-electron contribution =      -4.27285779 Ry
     hartree contribution      =       2.29707820 Ry
     xc contribution           =      -1.40761607 Ry
     ewald contribution        =       1.08638311 Ry

     convergence has been achieved in  40 iterations

     Forces acting on atoms (cartesian axes, Ry/au):

     atom    1 type  1   force =     0.01392539    0.00000000    0.00000000
     atom    2 type  1   force =    -0.01392539    0.00000000    0.00000000
     The non-local contrib.  to forces
     atom    1 type  1   force =     0.15125532    0.00000000    0.00000000
     atom    2 type  1   force =    -0.15314672    0.00000000    0.00000000
     The ionic contribution  to forces
     atom    1 type  1   force =    -1.07180611   -0.00000000   -0.00000000
     atom    2 type  1   force =     1.07180611    0.00000000   -0.00000000
     The local contribution  to forces
     atom    1 type  1   force =     0.93312194    0.00000000    0.00000000
     atom    2 type  1   force =    -0.93319841    0.00000000    0.00000000
     The core correction contribution to forces
     atom    1 type  1   force =     0.00000000    0.00000000    0.00000000
     atom    2 type  1   force =     0.00000000    0.00000000    0.00000000
     The Hubbard contrib.    to forces
     atom    1 type  1   force =     0.00000000    0.00000000    0.00000000
     atom    2 type  1   force =     0.00000000    0.00000000    0.00000000
     The SCF correction term to forces
     atom    1 type  1   force =     0.00065524    0.00000000    0.00000000
     atom    2 type  1   force =    -0.00008537    0.00000000   -0.00000000

     Total force =     0.019693     Total SCF correction =     0.000661
     Energy error            =      9.4E-04 Ry
     Gradient error          =      1.4E-02 Ry/Bohr

     number of scf cycles    =   2
     number of bfgs steps    =   1

     energy             old  =      -2.2979566315 Ry
     energy             new  =      -2.2970125548 Ry

     CASE: energy            _new > energy            _old

     new trust radius        =       0.0335387778 bohr
     new conv_thr            =       0.0000000100 Ry


ATOMIC_POSITIONS (angstrom)
H             0.0177479569        0.0000000000        0.0000000000
H             0.7822520431        0.0000000000        0.0000000000



     Writing config-only to output data dir ./.save/
     NEW-OLD atomic charge density approx. for the potential

     negative rho (up, down):  1.806E-01 0.000E+00

     total cpu time spent up to now is       22.4 secs

     Self-consistent Calculation

     iteration #  1     ecut=    15.00 Ry     beta= 0.70
     Davidson diagonalization with overlap

---- Real-time Memory Report at c_bands before calling an iterative solver
           211 MiB given to the printing process from OS
             0 MiB allocation reported by mallinfo(arena+hblkhd)
           467 MiB available memory on the node where the printing process lives
------------------
     ethr =  1.00E-06,  avg # of iterations =  7.0

     negative rho (up, down):  1.742E-01 0.000E+00

     total cpu time spent up to now is       22.9 secs

     total energy              =      -2.29872353 Ry
     estimated scf accuracy    <       0.00053337 Ry

     iteration #  2     ecut=    15.00 Ry     beta= 0.70
     Davidson diagonalization with overlap

---- Real-time Memory Report at c_bands before calling an iterative solver
           211 MiB given to the printing process from OS
             0 MiB allocation reported by mallinfo(arena+hblkhd)
           410 MiB available memory on the node where the printing process lives
------------------
     ethr =  2.67E-05,  avg # of iterations =  2.0

     negative rho (up, down):  1.733E-01 0.000E+00

     total cpu time spent up to now is       23.2 secs

     total energy              =      -2.29943632 Ry
     estimated scf accuracy    <       0.00000454 Ry

     iteration #  3     ecut=    15.00 Ry     beta= 0.70
     Davidson diagonalization with overlap

---- Real-time Memory Report at c_bands before calling an iterative solver
           211 MiB given to the printing process from OS
             0 MiB allocation reported by mallinfo(arena+hblkhd)
           403 MiB available memory on the node where the printing process lives
------------------
     ethr =  2.27E-07,  avg # of iterations =  5.0

     negative rho (up, down):  1.731E-01 0.000E+00

     total cpu time spent up to now is       23.6 secs

     total energy              =      -2.29955346 Ry
     estimated scf accuracy    <       0.00000034 Ry

     iteration #  4     ecut=    15.00 Ry     beta= 0.70
     Davidson diagonalization with overlap

---- Real-time Memory Report at c_bands before calling an iterative solver
           211 MiB given to the printing process from OS
             0 MiB allocation reported by mallinfo(arena+hblkhd)
           397 MiB available memory on the node where the printing process lives
------------------
     ethr =  1.72E-08,  avg # of iterations =  3.0

     negative rho (up, down):  1.731E-01 0.000E+00

     total cpu time spent up to now is       24.1 secs

     total energy              =      -2.29957977 Ry
     estimated scf accuracy    <       0.00000004 Ry

     iteration #  5     ecut=    15.00 Ry     beta= 0.70
     Davidson diagonalization with overlap

---- Real-time Memory Report at c_bands before calling an iterative solver
           211 MiB given to the printing process from OS
             0 MiB allocation reported by mallinfo(arena+hblkhd)
           390 MiB available memory on the node where the printing process lives
------------------
     ethr =  2.19E-09,  avg # of iterations =  3.0

     negative rho (up, down):  1.731E-01 0.000E+00

     total cpu time spent up to now is       24.4 secs

     End of self-consistent calculation

          k =-0.5000-0.5000-0.5000 ( 26344 PWs)   bands (ev):

   -10.5753  -1.4813

     occupation numbers 
     1.0000   0.0000

     highest occupied, lowest unoccupied level (ev):   -10.5753   -1.4813

!    total energy              =      -2.29956415 Ry
     estimated scf accuracy    <          3.3E-09 Ry

     The total energy is the sum of the following terms:
     one-electron contribution =      -4.16440198 Ry
     hartree contribution      =       2.23905405 Ry
     xc contribution           =      -1.38060205 Ry
     ewald contribution        =       1.00638583 Ry

     convergence has been achieved in   5 iterations

     Forces acting on atoms (cartesian axes, Ry/au):

     atom    1 type  1   force =     0.04764254    0.00000000    0.00000000
     atom    2 type  1   force =    -0.04764254    0.00000000    0.00000000
     The non-local contrib.  to forces
     atom    1 type  1   force =     0.11345870    0.00000000    0.00000000
     atom    2 type  1   force =    -0.11415352    0.00000000    0.00000000
     The ionic contribution  to forces
     atom    1 type  1   force =    -0.95778503    0.00000000   -0.00000000
     atom    2 type  1   force =     0.95778503   -0.00000000   -0.00000000
     The local contribution  to forces
     atom    1 type  1   force =     0.89173909    0.00000000    0.00000000
     atom    2 type  1   force =    -0.89128768    0.00000000    0.00000000
     The core correction contribution to forces
     atom    1 type  1   force =     0.00000000    0.00000000    0.00000000
     atom    2 type  1   force =     0.00000000    0.00000000    0.00000000
     The Hubbard contrib.    to forces
     atom    1 type  1   force =     0.00000000    0.00000000    0.00000000
     atom    2 type  1   force =     0.00000000    0.00000000    0.00000000
     The SCF correction term to forces
     atom    1 type  1   force =     0.00026063   -0.00000000    0.00000000
     atom    2 type  1   force =     0.00004446    0.00000000    0.00000000

     Total force =     0.067377     Total SCF correction =     0.000264
     Energy error            =      1.6E-03 Ry
     Gradient error          =      4.8E-02 Ry/Bohr

     number of scf cycles    =   3
     number of bfgs steps    =   1

     energy             old  =      -2.2979566315 Ry
     energy             new  =      -2.2995641532 Ry

     CASE: energy            _new < energy            _old

     new trust radius        =       0.0503081668 bohr
     new conv_thr            =       0.0000000016 Ry


ATOMIC_POSITIONS (angstrom)
H             0.0443698923        0.0000000000        0.0000000000
H             0.7556301077        0.0000000000        0.0000000000



     Writing config-only to output data dir ./.save/
     NEW-OLD atomic charge density approx. for the potential

     negative rho (up, down):  1.720E-01 0.000E+00

     total cpu time spent up to now is       24.8 secs

     Self-consistent Calculation

     iteration #  1     ecut=    15.00 Ry     beta= 0.70
     Davidson diagonalization with overlap

---- Real-time Memory Report at c_bands before calling an iterative solver
           211 MiB given to the printing process from OS
             0 MiB allocation reported by mallinfo(arena+hblkhd)
           467 MiB available memory on the node where the printing process lives
------------------
     ethr =  1.00E-06,  avg # of iterations =  7.0

     negative rho (up, down):  1.817E-01 0.000E+00

     total cpu time spent up to now is       25.3 secs

     total energy              =      -2.29715785 Ry
     estimated scf accuracy    <       0.00078371 Ry

     iteration #  2     ecut=    15.00 Ry     beta= 0.70
     Davidson diagonalization with overlap

---- Real-time Memory Report at c_bands before calling an iterative solver
           211 MiB given to the printing process from OS
             0 MiB allocation reported by mallinfo(arena+hblkhd)
           410 MiB available memory on the node where the printing process lives
------------------
     ethr =  3.92E-05,  avg # of iterations =  1.0

     negative rho (up, down):  1.847E-01 0.000E+00

     total cpu time spent up to now is       25.6 secs

     total energy              =      -2.29558899 Ry
     estimated scf accuracy    <       0.00001839 Ry

     iteration #  3     ecut=    15.00 Ry     beta= 0.70
     Davidson diagonalization with overlap

---- Real-time Memory Report at c_bands before calling an iterative solver
           211 MiB given to the printing process from OS
             0 MiB allocation reported by mallinfo(arena+hblkhd)
           403 MiB available memory on the node where the printing process lives
------------------
     ethr =  9.20E-07,  avg # of iterations =  5.0

     negative rho (up, down):  1.850E-01 0.000E+00

     total cpu time spent up to now is       26.1 secs

     total energy              =      -2.29539674 Ry
     estimated scf accuracy    <       0.00000050 Ry

     iteration #  4     ecut=    15.00 Ry     beta= 0.70
     Davidson diagonalization with overlap

---- Real-time Memory Report at c_bands before calling an iterative solver
           211 MiB given to the printing process from OS
             0 MiB allocation reported by mallinfo(arena+hblkhd)
           397 MiB available memory on the node where the printing process lives
------------------
     ethr =  2.52E-08,  avg # of iterations =  3.0

     negative rho (up, down):  1.851E-01 0.000E+00

     total cpu time spent up to now is       26.5 secs

     total energy              =      -2.29537602 Ry
     estimated scf accuracy    <       0.00000029 Ry

     iteration #  5     ecut=    15.00 Ry     beta= 0.70
     Davidson diagonalization with overlap

---- Real-time Memory Report at c_bands before calling an iterative solver
           211 MiB given to the printing process from OS
             0 MiB allocation reported by mallinfo(arena+hblkhd)
           390 MiB available memory on the node where the printing process lives
------------------
     ethr =  1.47E-08,  avg # of iterations =  2.0

     negative rho (up, down):  1.851E-01 0.000E+00

     total cpu time spent up to now is       26.8 secs

     total energy              =      -2.29537947 Ry
     estimated scf accuracy    <          5.1E-09 Ry

     iteration #  6     ecut=    15.00 Ry     beta= 0.70
     Davidson diagonalization with overlap

---- Real-time Memory Report at c_bands before calling an iterative solver
           211 MiB given to the printing process from OS
             0 MiB allocation reported by mallinfo(arena+hblkhd)
           384 MiB available memory on the node where the printing process lives
------------------
     ethr =  2.55E-10,  avg # of iterations =  3.0

     negative rho (up, down):  1.851E-01 0.000E+00

     total cpu time spent up to now is       27.2 secs

     total energy              =      -2.29538487 Ry
     estimated scf accuracy    <          2.9E-09 Ry

     iteration #  7     ecut=    15.00 Ry     beta= 0.70
     Davidson diagonalization with overlap

---- Real-time Memory Report at c_bands before calling an iterative solver
           211 MiB given to the printing process from OS
             0 MiB allocation reported by mallinfo(arena+hblkhd)
           377 MiB available memory on the node where the printing process lives
------------------
     ethr =  1.44E-10,  avg # of iterations =  4.0

     negative rho (up, down):  1.851E-01 0.000E+00

     total cpu time spent up to now is       27.6 secs

     total energy              =      -2.29537858 Ry
     estimated scf accuracy    <       0.00000003 Ry

     iteration #  8     ecut=    15.00 Ry     beta= 0.70
     Davidson diagonalization with overlap

---- Real-time Memory Report at c_bands before calling an iterative solver
           211 MiB given to the printing process from OS
             0 MiB allocation reported by mallinfo(arena+hblkhd)
           371 MiB available memory on the node where the printing process lives
------------------
     ethr =  1.44E-10,  avg # of iterations =  3.0

     negative rho (up, down):  1.851E-01 0.000E+00

     total cpu time spent up to now is       28.0 secs

     total energy              =      -2.29535179 Ry
     estimated scf accuracy    <       0.00000002 Ry

     iteration #  9     ecut=    15.00 Ry     beta= 0.70
     Davidson diagonalization with overlap

---- Real-time Memory Report at c_bands before calling an iterative solver
           211 MiB given to the printing process from OS
             0 MiB allocation reported by mallinfo(arena+hblkhd)
           365 MiB available memory on the node where the printing process lives
------------------
     ethr =  1.44E-10,  avg # of iterations =  4.0

     negative rho (up, down):  1.851E-01 0.000E+00

     total cpu time spent up to now is       28.4 secs

     total energy              =      -2.29535948 Ry
     estimated scf accuracy    <       0.00000003 Ry

     iteration # 10     ecut=    15.00 Ry     beta= 0.70
     Davidson diagonalization with overlap

---- Real-time Memory Report at c_bands before calling an iterative solver
           211 MiB given to the printing process from OS
             0 MiB allocation reported by mallinfo(arena+hblkhd)
           358 MiB available memory on the node where the printing process lives
------------------
     ethr =  1.44E-10,  avg # of iterations =  4.0

     negative rho (up, down):  1.851E-01 0.000E+00

     total cpu time spent up to now is       28.8 secs

     total energy              =      -2.29536312 Ry
     estimated scf accuracy    <       0.00000002 Ry

     iteration # 11     ecut=    15.00 Ry     beta= 0.70
     Davidson diagonalization with overlap

---- Real-time Memory Report at c_bands before calling an iterative solver
           211 MiB given to the printing process from OS
             0 MiB allocation reported by mallinfo(arena+hblkhd)
           358 MiB available memory on the node where the printing process lives
------------------
     ethr =  1.44E-10,  avg # of iterations =  4.0

     negative rho (up, down):  1.851E-01 0.000E+00

     total cpu time spent up to now is       29.2 secs

     total energy              =      -2.29536607 Ry
     estimated scf accuracy    <       0.00000002 Ry

     iteration # 12     ecut=    15.00 Ry     beta= 0.70
     Davidson diagonalization with overlap

---- Real-time Memory Report at c_bands before calling an iterative solver
           211 MiB given to the printing process from OS
             0 MiB allocation reported by mallinfo(arena+hblkhd)
           358 MiB available memory on the node where the printing process lives
------------------
     ethr =  1.44E-10,  avg # of iterations =  3.0

     negative rho (up, down):  1.851E-01 0.000E+00

     total cpu time spent up to now is       29.6 secs

     total energy              =      -2.29537915 Ry
     estimated scf accuracy    <       0.00000002 Ry

     iteration # 13     ecut=    15.00 Ry     beta= 0.70
     Davidson diagonalization with overlap

---- Real-time Memory Report at c_bands before calling an iterative solver
           211 MiB given to the printing process from OS
             0 MiB allocation reported by mallinfo(arena+hblkhd)
           358 MiB available memory on the node where the printing process lives
------------------
     ethr =  1.44E-10,  avg # of iterations =  4.0

     negative rho (up, down):  1.851E-01 0.000E+00

     total cpu time spent up to now is       30.1 secs

     total energy              =      -2.29537405 Ry
     estimated scf accuracy    <       0.00000004 Ry

     iteration # 14     ecut=    15.00 Ry     beta= 0.70
     Davidson diagonalization with overlap

---- Real-time Memory Report at c_bands before calling an iterative solver
           211 MiB given to the printing process from OS
             0 MiB allocation reported by mallinfo(arena+hblkhd)
           358 MiB available memory on the node where the printing process lives
------------------
     ethr =  1.44E-10,  avg # of iterations =  4.0

     negative rho (up, down):  1.851E-01 0.000E+00

     total cpu time spent up to now is       30.5 secs

     total energy              =      -2.29536406 Ry
     estimated scf accuracy    <       0.00000003 Ry

     iteration # 15     ecut=    15.00 Ry     beta= 0.70
     Davidson diagonalization with overlap

---- Real-time Memory Report at c_bands before calling an iterative solver
           211 MiB given to the printing process from OS
             0 MiB allocation reported by mallinfo(arena+hblkhd)
           358 MiB available memory on the node where the printing process lives
------------------
     ethr =  1.44E-10,  avg # of iterations =  4.0

     negative rho (up, down):  1.851E-01 0.000E+00

     total cpu time spent up to now is       30.9 secs

     total energy              =      -2.29537372 Ry
     estimated scf accuracy    <       0.00000002 Ry

     iteration # 16     ecut=    15.00 Ry     beta= 0.70
     Davidson diagonalization with overlap

---- Real-time Memory Report at c_bands before calling an iterative solver
           211 MiB given to the printing process from OS
             0 MiB allocation reported by mallinfo(arena+hblkhd)
           358 MiB available memory on the node where the printing process lives
------------------
     ethr =  1.44E-10,  avg # of iterations =  4.0

     negative rho (up, down):  1.851E-01 0.000E+00

     total cpu time spent up to now is       31.3 secs

     total energy              =      -2.29537673 Ry
     estimated scf accuracy    <          9.6E-09 Ry

     iteration # 17     ecut=    15.00 Ry     beta= 0.70
     Davidson diagonalization with overlap

---- Real-time Memory Report at c_bands before calling an iterative solver
           211 MiB given to the printing process from OS
             0 MiB allocation reported by mallinfo(arena+hblkhd)
           358 MiB available memory on the node where the printing process lives
------------------
     ethr =  1.44E-10,  avg # of iterations =  2.0

     negative rho (up, down):  1.851E-01 0.000E+00

     total cpu time spent up to now is       31.7 secs

     total energy              =      -2.29537318 Ry
     estimated scf accuracy    <       0.00000001 Ry

     iteration # 18     ecut=    15.00 Ry     beta= 0.70
     Davidson diagonalization with overlap

---- Real-time Memory Report at c_bands before calling an iterative solver
           211 MiB given to the printing process from OS
             0 MiB allocation reported by mallinfo(arena+hblkhd)
           358 MiB available memory on the node where the printing process lives
------------------
     ethr =  1.44E-10,  avg # of iterations =  2.0

     negative rho (up, down):  1.851E-01 0.000E+00

     total cpu time spent up to now is       32.1 secs

     total energy              =      -2.29537676 Ry
     estimated scf accuracy    <          8.7E-09 Ry

     iteration # 19     ecut=    15.00 Ry     beta= 0.70
     Davidson diagonalization with overlap

---- Real-time Memory Report at c_bands before calling an iterative solver
           211 MiB given to the printing process from OS
             0 MiB allocation reported by mallinfo(arena+hblkhd)
           358 MiB available memory on the node where the printing process lives
------------------
     ethr =  1.44E-10,  avg # of iterations =  2.0

     negative rho (up, down):  1.851E-01 0.000E+00

     total cpu time spent up to now is       32.5 secs

     total energy              =      -2.29537204 Ry
     estimated scf accuracy    <       0.00000001 Ry

     iteration # 20     ecut=    15.00 Ry     beta= 0.70
     Davidson diagonalization with overlap

---- Real-time Memory Report at c_bands before calling an iterative solver
           211 MiB given to the printing process from OS
             0 MiB allocation reported by mallinfo(arena+hblkhd)
           358 MiB available memory on the node where the printing process lives
------------------
     ethr =  1.44E-10,  avg # of iterations =  4.0

     negative rho (up, down):  1.851E-01 0.000E+00

     total cpu time spent up to now is       32.9 secs

     total energy              =      -2.29536449 Ry
     estimated scf accuracy    <       0.00000002 Ry

     iteration # 21     ecut=    15.00 Ry     beta= 0.70
     Davidson diagonalization with overlap

---- Real-time Memory Report at c_bands before calling an iterative solver
           211 MiB given to the printing process from OS
             0 MiB allocation reported by mallinfo(arena+hblkhd)
           358 MiB available memory on the node where the printing process lives
------------------
     ethr =  1.44E-10,  avg # of iterations =  4.0

     negative rho (up, down):  1.851E-01 0.000E+00

     total cpu time spent up to now is       33.3 secs

     total energy              =      -2.29537889 Ry
     estimated scf accuracy    <          6.1E-09 Ry

     iteration # 22     ecut=    15.00 Ry     beta= 0.70
     Davidson diagonalization with overlap

---- Real-time Memory Report at c_bands before calling an iterative solver
           211 MiB given to the printing process from OS
             0 MiB allocation reported by mallinfo(arena+hblkhd)
           358 MiB available memory on the node where the printing process lives
------------------
     ethr =  1.44E-10,  avg # of iterations =  4.0

     negative rho (up, down):  1.851E-01 0.000E+00

     total cpu time spent up to now is       33.7 secs

     total energy              =      -2.29538158 Ry
     estimated scf accuracy    <          5.9E-09 Ry

     iteration # 23     ecut=    15.00 Ry     beta= 0.70
     Davidson diagonalization with overlap

---- Real-time Memory Report at c_bands before calling an iterative solver
           211 MiB given to the printing process from OS
             0 MiB allocation reported by mallinfo(arena+hblkhd)
           358 MiB available memory on the node where the printing process lives
------------------
     ethr =  1.44E-10,  avg # of iterations =  1.0

     negative rho (up, down):  1.851E-01 0.000E+00

     total cpu time spent up to now is       34.1 secs

     total energy              =      -2.29538161 Ry
     estimated scf accuracy    <          5.9E-09 Ry

     iteration # 24     ecut=    15.00 Ry     beta= 0.70
     Davidson diagonalization with overlap

---- Real-time Memory Report at c_bands before calling an iterative solver
           211 MiB given to the printing process from OS
             0 MiB allocation reported by mallinfo(arena+hblkhd)
           358 MiB available memory on the node where the printing process lives
------------------
     ethr =  1.44E-10,  avg # of iterations =  1.0

     negative rho (up, down):  1.851E-01 0.000E+00

     total cpu time spent up to now is       34.5 secs

     total energy              =      -2.29536296 Ry
     estimated scf accuracy    <          6.1E-09 Ry

     iteration # 25     ecut=    15.00 Ry     beta= 0.70
     Davidson diagonalization with overlap

---- Real-time Memory Report at c_bands before calling an iterative solver
           211 MiB given to the printing process from OS
             0 MiB allocation reported by mallinfo(arena+hblkhd)
           358 MiB available memory on the node where the printing process lives
------------------
     ethr =  1.44E-10,  avg # of iterations =  4.0

     negative rho (up, down):  1.851E-01 0.000E+00

     total cpu time spent up to now is       34.9 secs

     total energy              =      -2.29536740 Ry
     estimated scf accuracy    <       0.00000003 Ry

     iteration # 26     ecut=    15.00 Ry     beta= 0.70
     Davidson diagonalization with overlap

---- Real-time Memory Report at c_bands before calling an iterative solver
           211 MiB given to the printing process from OS
             0 MiB allocation reported by mallinfo(arena+hblkhd)
           358 MiB available memory on the node where the printing process lives
------------------
     ethr =  1.44E-10,  avg # of iterations =  3.0

     negative rho (up, down):  1.851E-01 0.000E+00

     total cpu time spent up to now is       35.3 secs

     total energy              =      -2.29536678 Ry
     estimated scf accuracy    <       0.00000002 Ry

     iteration # 27     ecut=    15.00 Ry     beta= 0.70
     Davidson diagonalization with overlap

---- Real-time Memory Report at c_bands before calling an iterative solver
           211 MiB given to the printing process from OS
             0 MiB allocation reported by mallinfo(arena+hblkhd)
           358 MiB available memory on the node where the printing process lives
------------------
     ethr =  1.44E-10,  avg # of iterations =  3.0

     negative rho (up, down):  1.851E-01 0.000E+00

     total cpu time spent up to now is       35.7 secs

     total energy              =      -2.29537182 Ry
     estimated scf accuracy    <       0.00000003 Ry

     iteration # 28     ecut=    15.00 Ry     beta= 0.70
     Davidson diagonalization with overlap

---- Real-time Memory Report at c_bands before calling an iterative solver
           211 MiB given to the printing process from OS
             0 MiB allocation reported by mallinfo(arena+hblkhd)
           358 MiB available memory on the node where the printing process lives
------------------
     ethr =  1.44E-10,  avg # of iterations =  4.0

     negative rho (up, down):  1.851E-01 0.000E+00

     total cpu time spent up to now is       36.2 secs

     total energy              =      -2.29536587 Ry
     estimated scf accuracy    <          6.6E-09 Ry

     iteration # 29     ecut=    15.00 Ry     beta= 0.70
     Davidson diagonalization with overlap

---- Real-time Memory Report at c_bands before calling an iterative solver
           211 MiB given to the printing process from OS
             0 MiB allocation reported by mallinfo(arena+hblkhd)
           358 MiB available memory on the node where the printing process lives
------------------
     ethr =  1.44E-10,  avg # of iterations =  4.0

     negative rho (up, down):  1.851E-01 0.000E+00

     total cpu time spent up to now is       36.6 secs

     total energy              =      -2.29537681 Ry
     estimated scf accuracy    <       0.00000002 Ry

     iteration # 30     ecut=    15.00 Ry     beta= 0.70
     Davidson diagonalization with overlap

---- Real-time Memory Report at c_bands before calling an iterative solver
           211 MiB given to the printing process from OS
             0 MiB allocation reported by mallinfo(arena+hblkhd)
           358 MiB available memory on the node where the printing process lives
------------------
     ethr =  1.44E-10,  avg # of iterations =  4.0

     negative rho (up, down):  1.851E-01 0.000E+00

     total cpu time spent up to now is       37.0 secs

     total energy              =      -2.29537945 Ry
     estimated scf accuracy    <          6.8E-09 Ry

     iteration # 31     ecut=    15.00 Ry     beta= 0.70
     Davidson diagonalization with overlap

---- Real-time Memory Report at c_bands before calling an iterative solver
           211 MiB given to the printing process from OS
             0 MiB allocation reported by mallinfo(arena+hblkhd)
           358 MiB available memory on the node where the printing process lives
------------------
     ethr =  1.44E-10,  avg # of iterations =  3.0

     negative rho (up, down):  1.851E-01 0.000E+00

     total cpu time spent up to now is       37.4 secs

     total energy              =      -2.29537398 Ry
     estimated scf accuracy    <       0.00000002 Ry

     iteration # 32     ecut=    15.00 Ry     beta= 0.70
     Davidson diagonalization with overlap

---- Real-time Memory Report at c_bands before calling an iterative solver
           211 MiB given to the printing process from OS
             0 MiB allocation reported by mallinfo(arena+hblkhd)
           358 MiB available memory on the node where the printing process lives
------------------
     ethr =  1.44E-10,  avg # of iterations =  4.0

     negative rho (up, down):  1.851E-01 0.000E+00

     total cpu time spent up to now is       37.8 secs

     total energy              =      -2.29537707 Ry
     estimated scf accuracy    <       0.00000003 Ry

     iteration # 33     ecut=    15.00 Ry     beta= 0.70
     Davidson diagonalization with overlap

---- Real-time Memory Report at c_bands before calling an iterative solver
           211 MiB given to the printing process from OS
             0 MiB allocation reported by mallinfo(arena+hblkhd)
           358 MiB available memory on the node where the printing process lives
------------------
     ethr =  1.44E-10,  avg # of iterations =  2.0

     negative rho (up, down):  1.851E-01 0.000E+00

     total cpu time spent up to now is       38.2 secs

     total energy              =      -2.29537718 Ry
     estimated scf accuracy    <       0.00000003 Ry

     iteration # 34     ecut=    15.00 Ry     beta= 0.70
[...]
------------------
     ethr =  8.75E-11,  avg # of iterations =  1.0

     negative rho (up, down):  1.851E-01 0.000E+00

     total cpu time spent up to now is       55.5 secs

     total energy              =      -2.29537466 Ry
     estimated scf accuracy    <          2.3E-09 Ry

     iteration # 77     ecut=    15.00 Ry     beta= 0.70
     Davidson diagonalization with overlap

---- Real-time Memory Report at c_bands before calling an iterative solver
           211 MiB given to the printing process from OS
             0 MiB allocation reported by mallinfo(arena+hblkhd)
           358 MiB available memory on the node where the printing process lives
------------------
     ethr =  8.75E-11,  avg # of iterations =  1.0

     negative rho (up, down):  1.851E-01 0.000E+00

     total cpu time spent up to now is       55.9 secs

     total energy              =      -2.29536625 Ry
     estimated scf accuracy    <          2.2E-09 Ry

     iteration # 78     ecut=    15.00 Ry     beta= 0.70
     Davidson diagonalization with overlap

---- Real-time Memory Report at c_bands before calling an iterative solver
           211 MiB given to the printing process from OS
             0 MiB allocation reported by mallinfo(arena+hblkhd)
           358 MiB available memory on the node where the printing process lives
------------------
     ethr =  8.75E-11,  avg # of iterations =  4.0

     negative rho (up, down):  1.851E-01 0.000E+00

     total cpu time spent up to now is       56.3 secs

     total energy              =      -2.29536905 Ry
     estimated scf accuracy    <          4.8E-09 Ry

     iteration # 79     ecut=    15.00 Ry     beta= 0.70
     Davidson diagonalization with overlap

---- Real-time Memory Report at c_bands before calling an iterative solver
           211 MiB given to the printing process from OS
             0 MiB allocation reported by mallinfo(arena+hblkhd)
           358 MiB available memory on the node where the printing process lives
------------------
     ethr =  8.75E-11,  avg # of iterations =  1.0

     negative rho (up, down):  1.851E-01 0.000E+00

     total cpu time spent up to now is       56.7 secs

     total energy              =      -2.29536897 Ry
     estimated scf accuracy    <          5.0E-09 Ry

     iteration # 80     ecut=    15.00 Ry     beta= 0.70
     Davidson diagonalization with overlap

---- Real-time Memory Report at c_bands before calling an iterative solver
           211 MiB given to the printing process from OS
             0 MiB allocation reported by mallinfo(arena+hblkhd)
           358 MiB available memory on the node where the printing process lives
------------------
     ethr =  8.75E-11,  avg # of iterations =  2.0

     negative rho (up, down):  1.851E-01 0.000E+00

     total cpu time spent up to now is       57.0 secs

     total energy              =      -2.29536888 Ry
     estimated scf accuracy    <          5.0E-09 Ry

     iteration # 81     ecut=    15.00 Ry     beta= 0.70
     Davidson diagonalization with overlap

---- Real-time Memory Report at c_bands before calling an iterative solver
           211 MiB given to the printing process from OS
             0 MiB allocation reported by mallinfo(arena+hblkhd)
           358 MiB available memory on the node where the printing process lives
------------------
     ethr =  8.75E-11,  avg # of iterations =  1.0

     negative rho (up, down):  1.851E-01 0.000E+00

     total cpu time spent up to now is       57.4 secs

     total energy              =      -2.29536612 Ry
     estimated scf accuracy    <          5.0E-09 Ry

     iteration # 82     ecut=    15.00 Ry     beta= 0.70
     Davidson diagonalization with overlap

---- Real-time Memory Report at c_bands before calling an iterative solver
           211 MiB given to the printing process from OS
             0 MiB allocation reported by mallinfo(arena+hblkhd)
           358 MiB available memory on the node where the printing process lives
------------------
     ethr =  8.75E-11,  avg # of iterations =  2.0

     negative rho (up, down):  1.851E-01 0.000E+00

     total cpu time spent up to now is       57.8 secs

     total energy              =      -2.29536553 Ry
     estimated scf accuracy    <          6.5E-09 Ry

     iteration # 83     ecut=    15.00 Ry     beta= 0.70
     Davidson diagonalization with overlap

---- Real-time Memory Report at c_bands before calling an iterative solver
           211 MiB given to the printing process from OS
             0 MiB allocation reported by mallinfo(arena+hblkhd)
           358 MiB available memory on the node where the printing process lives
------------------
     ethr =  8.75E-11,  avg # of iterations =  2.0

     negative rho (up, down):  1.851E-01 0.000E+00

     total cpu time spent up to now is       58.2 secs

     total energy              =      -2.29536736 Ry
     estimated scf accuracy    <          6.4E-09 Ry

     iteration # 84     ecut=    15.00 Ry     beta= 0.70
     Davidson diagonalization with overlap

---- Real-time Memory Report at c_bands before calling an iterative solver
           211 MiB given to the printing process from OS
             0 MiB allocation reported by mallinfo(arena+hblkhd)
           358 MiB available memory on the node where the printing process lives
------------------
     ethr =  8.75E-11,  avg # of iterations =  2.0

     negative rho (up, down):  1.851E-01 0.000E+00

     total cpu time spent up to now is       58.6 secs

     total energy              =      -2.29536876 Ry
     estimated scf accuracy    <          7.7E-09 Ry

     iteration # 85     ecut=    15.00 Ry     beta= 0.70
     Davidson diagonalization with overlap

---- Real-time Memory Report at c_bands before calling an iterative solver
           211 MiB given to the printing process from OS
             0 MiB allocation reported by mallinfo(arena+hblkhd)
           358 MiB available memory on the node where the printing process lives
------------------
     ethr =  8.75E-11,  avg # of iterations =  3.0

     negative rho (up, down):  1.851E-01 0.000E+00

     total cpu time spent up to now is       59.0 secs

     total energy              =      -2.29537822 Ry
     estimated scf accuracy    <          4.4E-09 Ry

     iteration # 86     ecut=    15.00 Ry     beta= 0.70
     Davidson diagonalization with overlap

---- Real-time Memory Report at c_bands before calling an iterative solver
           211 MiB given to the printing process from OS
             0 MiB allocation reported by mallinfo(arena+hblkhd)
           358 MiB available memory on the node where the printing process lives
------------------
     ethr =  8.75E-11,  avg # of iterations =  4.0

     negative rho (up, down):  1.851E-01 0.000E+00

     total cpu time spent up to now is       59.4 secs

     total energy              =      -2.29538788 Ry
     estimated scf accuracy    <       0.00000003 Ry

     iteration # 87     ecut=    15.00 Ry     beta= 0.70
     Davidson diagonalization with overlap

---- Real-time Memory Report at c_bands before calling an iterative solver
           211 MiB given to the printing process from OS
             0 MiB allocation reported by mallinfo(arena+hblkhd)
           358 MiB available memory on the node where the printing process lives
------------------
     ethr =  8.75E-11,  avg # of iterations =  4.0

     negative rho (up, down):  1.851E-01 0.000E+00

     total cpu time spent up to now is       59.8 secs

     total energy              =      -2.29538185 Ry
     estimated scf accuracy    <          7.7E-09 Ry

     iteration # 88     ecut=    15.00 Ry     beta= 0.70
     Davidson diagonalization with overlap

---- Real-time Memory Report at c_bands before calling an iterative solver
           211 MiB given to the printing process from OS
             0 MiB allocation reported by mallinfo(arena+hblkhd)
           358 MiB available memory on the node where the printing process lives
------------------
     ethr =  8.75E-11,  avg # of iterations =  4.0

     negative rho (up, down):  1.851E-01 0.000E+00

     total cpu time spent up to now is       60.2 secs

     total energy              =      -2.29538128 Ry
     estimated scf accuracy    <       0.00000005 Ry

     iteration # 89     ecut=    15.00 Ry     beta= 0.70
     Davidson diagonalization with overlap

---- Real-time Memory Report at c_bands before calling an iterative solver
           211 MiB given to the printing process from OS
             0 MiB allocation reported by mallinfo(arena+hblkhd)
           358 MiB available memory on the node where the printing process lives
------------------
     ethr =  8.75E-11,  avg # of iterations =  4.0

     negative rho (up, down):  1.851E-01 0.000E+00

     total cpu time spent up to now is       60.6 secs

     total energy              =      -2.29534709 Ry
     estimated scf accuracy    <       0.00000002 Ry

     iteration # 90     ecut=    15.00 Ry     beta= 0.70
     Davidson diagonalization with overlap

---- Real-time Memory Report at c_bands before calling an iterative solver
           211 MiB given to the printing process from OS
             0 MiB allocation reported by mallinfo(arena+hblkhd)
           358 MiB available memory on the node where the printing process lives
------------------
     ethr =  8.75E-11,  avg # of iterations =  4.0

     negative rho (up, down):  1.851E-01 0.000E+00

     total cpu time spent up to now is       61.0 secs

     total energy              =      -2.29536224 Ry
     estimated scf accuracy    <       0.00000002 Ry

     iteration # 91     ecut=    15.00 Ry     beta= 0.70
     Davidson diagonalization with overlap

---- Real-time Memory Report at c_bands before calling an iterative solver
           211 MiB given to the printing process from OS
             0 MiB allocation reported by mallinfo(arena+hblkhd)
           358 MiB available memory on the node where the printing process lives
------------------
     ethr =  8.75E-11,  avg # of iterations =  3.0

     negative rho (up, down):  1.851E-01 0.000E+00

     total cpu time spent up to now is       61.4 secs

     total energy              =      -2.29537827 Ry
     estimated scf accuracy    <          5.6E-09 Ry

     iteration # 92     ecut=    15.00 Ry     beta= 0.70
     Davidson diagonalization with overlap

---- Real-time Memory Report at c_bands before calling an iterative solver
           211 MiB given to the printing process from OS
             0 MiB allocation reported by mallinfo(arena+hblkhd)
           358 MiB available memory on the node where the printing process lives
------------------
     ethr =  8.75E-11,  avg # of iterations =  4.0

     negative rho (up, down):  1.851E-01 0.000E+00

     total cpu time spent up to now is       61.8 secs

     total energy              =      -2.29535874 Ry
     estimated scf accuracy    <       0.00000001 Ry

     iteration # 93     ecut=    15.00 Ry     beta= 0.70
     Davidson diagonalization with overlap

---- Real-time Memory Report at c_bands before calling an iterative solver
           211 MiB given to the printing process from OS
             0 MiB allocation reported by mallinfo(arena+hblkhd)
           358 MiB available memory on the node where the printing process lives
------------------
     ethr =  8.75E-11,  avg # of iterations =  4.0

     negative rho (up, down):  1.851E-01 0.000E+00

     total cpu time spent up to now is       62.2 secs

     total energy              =      -2.29537869 Ry
     estimated scf accuracy    <       0.00000001 Ry

     iteration # 94     ecut=    15.00 Ry     beta= 0.70
     Davidson diagonalization with overlap

---- Real-time Memory Report at c_bands before calling an iterative solver
           211 MiB given to the printing process from OS
             0 MiB allocation reported by mallinfo(arena+hblkhd)
           358 MiB available memory on the node where the printing process lives
------------------
     ethr =  8.75E-11,  avg # of iterations =  4.0

     negative rho (up, down):  1.851E-01 0.000E+00

     total cpu time spent up to now is       62.7 secs

     total energy              =      -2.29538622 Ry
     estimated scf accuracy    <       0.00000002 Ry

     iteration # 95     ecut=    15.00 Ry     beta= 0.70
     Davidson diagonalization with overlap

---- Real-time Memory Report at c_bands before calling an iterative solver
           211 MiB given to the printing process from OS
             0 MiB allocation reported by mallinfo(arena+hblkhd)
           358 MiB available memory on the node where the printing process lives
------------------
     ethr =  8.75E-11,  avg # of iterations =  3.0

     negative rho (up, down):  1.851E-01 0.000E+00

     total cpu time spent up to now is       63.1 secs

     total energy              =      -2.29537819 Ry
     estimated scf accuracy    <       0.00000003 Ry

     iteration # 96     ecut=    15.00 Ry     beta= 0.70
     Davidson diagonalization with overlap

---- Real-time Memory Report at c_bands before calling an iterative solver
           211 MiB given to the printing process from OS
             0 MiB allocation reported by mallinfo(arena+hblkhd)
           358 MiB available memory on the node where the printing process lives
------------------
     ethr =  8.75E-11,  avg # of iterations =  3.0

     negative rho (up, down):  1.851E-01 0.000E+00

     total cpu time spent up to now is       63.5 secs

     total energy              =      -2.29537853 Ry
     estimated scf accuracy    <       0.00000001 Ry

     iteration # 97     ecut=    15.00 Ry     beta= 0.70
     Davidson diagonalization with overlap

---- Real-time Memory Report at c_bands before calling an iterative solver
           211 MiB given to the printing process from OS
             0 MiB allocation reported by mallinfo(arena+hblkhd)
           358 MiB available memory on the node where the printing process lives
------------------
     ethr =  8.75E-11,  avg # of iterations =  2.0

     negative rho (up, down):  1.851E-01 0.000E+00

     total cpu time spent up to now is       63.8 secs

     total energy              =      -2.29537965 Ry
     estimated scf accuracy    <       0.00000001 Ry

     iteration # 98     ecut=    15.00 Ry     beta= 0.70
     Davidson diagonalization with overlap

---- Real-time Memory Report at c_bands before calling an iterative solver
           211 MiB given to the printing process from OS
             0 MiB allocation reported by mallinfo(arena+hblkhd)
           358 MiB available memory on the node where the printing process lives
------------------
     ethr =  8.75E-11,  avg # of iterations =  3.0

     negative rho (up, down):  1.851E-01 0.000E+00

     total cpu time spent up to now is       64.2 secs

     total energy              =      -2.29536212 Ry
     estimated scf accuracy    <       0.00000001 Ry

     iteration # 99     ecut=    15.00 Ry     beta= 0.70
     Davidson diagonalization with overlap

---- Real-time Memory Report at c_bands before calling an iterative solver
           211 MiB given to the printing process from OS
             0 MiB allocation reported by mallinfo(arena+hblkhd)
           358 MiB available memory on the node where the printing process lives
------------------
     ethr =  8.75E-11,  avg # of iterations =  4.0

     negative rho (up, down):  1.851E-01 0.000E+00

     total cpu time spent up to now is       64.7 secs

     total energy              =      -2.29535778 Ry
     estimated scf accuracy    <       0.00000001 Ry

     iteration #100     ecut=    15.00 Ry     beta= 0.70
     Davidson diagonalization with overlap

---- Real-time Memory Report at c_bands before calling an iterative solver
           211 MiB given to the printing process from OS
             0 MiB allocation reported by mallinfo(arena+hblkhd)
           358 MiB available memory on the node where the printing process lives
------------------
     ethr =  8.75E-11,  avg # of iterations =  3.0

     negative rho (up, down):  1.851E-01 0.000E+00

     total cpu time spent up to now is       65.1 secs

     total energy              =      -2.29537796 Ry
     estimated scf accuracy    <       0.00000001 Ry

     End of self-consistent calculation

     convergence NOT achieved after 100 iterations: stopping

     Writing config to output data dir ./.save/
     Message from routine punch:
     wavefunctions written to file

     init_run     :      0.37s CPU      0.39s WALL (       1 calls)
     electrons    :     63.39s CPU     63.59s WALL (       4 calls)
     update_pot   :      0.71s CPU      0.74s WALL (       3 calls)
     forces       :      0.26s CPU      0.27s WALL (       3 calls)

     Called by init_run:
     wfcinit      :      0.03s CPU      0.03s WALL (       1 calls)
     wfcinit:atom :      0.00s CPU      0.00s WALL (       1 calls)
     wfcinit:wfcr :      0.03s CPU      0.03s WALL (       1 calls)
     potinit      :      0.22s CPU      0.24s WALL (       1 calls)
     hinit0       :      0.02s CPU      0.02s WALL (       1 calls)

     Called by electrons:
     c_bands      :     13.71s CPU     13.75s WALL (     158 calls)
     sum_band     :      7.23s CPU      7.25s WALL (     158 calls)
     v_of_rho     :     32.86s CPU     32.92s WALL (     162 calls)
     v_h          :      1.84s CPU      1.84s WALL (     162 calls)
     v_xc         :     31.02s CPU     31.07s WALL (     162 calls)
     newd         :      2.37s CPU      2.38s WALL (     162 calls)
     mix_rho      :      7.40s CPU      7.46s WALL (     158 calls)

     Called by c_bands:
     init_us_2    :      0.22s CPU      0.22s WALL (     317 calls)
     init_us_2:cp :      0.22s CPU      0.22s WALL (     317 calls)
     cegterg      :     13.56s CPU     13.60s WALL (     158 calls)

     Called by sum_band:
     sum_band:wei :      0.00s CPU      0.00s WALL (     158 calls)
     sum_band:loo :      2.15s CPU      2.15s WALL (     158 calls)
     sum_band:buf :      0.00s CPU      0.00s WALL (     158 calls)
     sum_band:ini :      0.11s CPU      0.11s WALL (     158 calls)
     sum_band:cal :      0.03s CPU      0.03s WALL (     158 calls)
     sum_band:bec :      0.00s CPU      0.00s WALL (     158 calls)
     addusdens    :      0.65s CPU      0.66s WALL (     158 calls)
     addusd:skk   :      0.19s CPU      0.19s WALL (     158 calls)
     addusd:dgemm :      0.14s CPU      0.14s WALL (     158 calls)
     addusd:qvan2 :      0.16s CPU      0.17s WALL (     158 calls)

     Called by *egterg:
     cdiaghg      :      0.01s CPU      0.01s WALL (     670 calls)
     cegterg:over :      0.17s CPU      0.17s WALL (     515 calls)
     cegterg:upda :      0.13s CPU      0.14s WALL (     515 calls)
     cegterg:last :      0.26s CPU      0.26s WALL (     393 calls)
     h_psi        :     12.71s CPU     12.75s WALL (     674 calls)
     s_psi        :      0.07s CPU      0.07s WALL (     674 calls)
     g_psi        :      0.06s CPU      0.06s WALL (     515 calls)

     Called by h_psi:
     h_psi:calbec :      0.10s CPU      0.10s WALL (     674 calls)
     vloc_psi     :     12.49s CPU     12.53s WALL (     674 calls)
     add_vuspsi   :      0.08s CPU      0.08s WALL (     674 calls)

     General routines
     calbec       :      0.12s CPU      0.12s WALL (     844 calls)
     fft          :     16.06s CPU     16.07s WALL (    1791 calls)
     ffts         :      1.45s CPU      1.45s WALL (     158 calls)
     fftw         :     13.13s CPU     13.16s WALL (    2338 calls)
     davcio       :      0.00s CPU      0.01s WALL (      19 calls)


     PWSCF        :   1m 4.87s CPU   1m 5.13s WALL


   This run was terminated on:   3: 7: 8  28Feb2022            

=------------------------------------------------------------------------------=
   JOB DONE.
=------------------------------------------------------------------------------=
