
     Program PWSCF v.7.0 starts on 28Feb2022 at  3:56:46 

     This program is part of the open-source Quantum ESPRESSO suite
     for quantum simulation of materials; please cite
         "P. Giannozzi et al., J. Phys.:Condens. Matter 21 395502 (2009);
         "P. Giannozzi et al., J. Phys.:Condens. Matter 29 465901 (2017);
         "P. Giannozzi et al., J. Chem. Phys. 152 154105 (2020);
          URL http://www.quantum-espresso.org", 
     in publications or presentations arising from this work. More details at
     http://www.quantum-espresso.org/quote

     Serial version
     546 MiB available memory on the printing compute node when the environment starts

     Waiting for input...
     Reading input from standard input

     Current dimensions of program PWSCF are:
     Max number of different atomic species (ntypx) = 10
     Max number of k-points (npk) =  40000
     Max angular momentum in pseudopotentials (lmaxx) =  4

     File ./.update deleted, as requested

     File ./.bfgs deleted, as requested

    ============================================================
    |  pseudopotential report for atomic species:  1           |
    |        pseudo potential version   7   3   2              |
    ------------------------------------------------------------
    |  hydrogen            PBE                  exchange-corr  |
    |  z =   1.    zv( 1) =   1.    exfact =   5.00000         |
    |  ifpcor =  0           atomic energy =  -0.91772 Ry      |
    |  index    orbital      occupation    energy              |
    |    1        100           1.00       -0.48               |
    |  rinner =  0.5000                                        |
    |    new generation scheme:                                |
    |    nbeta =  1     kkbeta =  271     rcloc =    0.6000    |
    |    ibeta    l     epsilon   rcut                         |
    |      1       0      -0.48   0.80                         |
    ============================================================

     IMPORTANT: XC functional enforced from input :
     Exchange-correlation= BLYP
                           (   1   3   1   3   0   0   0)
     Any further DFT definition will be discarded
     Please, verify this is what you really want


     G-vector sticks info
     --------------------
     sticks:   dense  smooth     PW     G-vecs:    dense   smooth      PW
     Sum        7153    7153   1925               455863   455863   63461

     Using Slab Decomposition



     bravais-lattice index     =            1
     lattice parameter (alat)  =      30.0000  a.u.
     unit-cell volume          =   27000.0000 (a.u.)^3
     number of atoms/cell      =            2
     number of atomic types    =            1
     number of electrons       =         2.00
     number of Kohn-Sham states=            2
     kinetic-energy cutoff     =      25.0000  Ry
     charge density cutoff     =     100.0000  Ry
     scf convergence threshold =      1.0E-08
     mixing beta               =       0.7000
     number of iterations used =            8  plain     mixing
     energy convergence thresh.=      1.0E-04
     force convergence thresh. =      1.0E-03
     Exchange-correlation= BLYP
                           (   1   3   1   3   0   0   0)
     nstep                     =           50


     celldm(1)=  30.000000  celldm(2)=   0.000000  celldm(3)=   0.000000
     celldm(4)=   0.000000  celldm(5)=   0.000000  celldm(6)=   0.000000

     crystal axes: (cart. coord. in units of alat)
               a(1) = (   1.000000   0.000000   0.000000 )  
               a(2) = (   0.000000   1.000000   0.000000 )  
               a(3) = (   0.000000   0.000000   1.000000 )  

     reciprocal axes: (cart. coord. in units 2 pi/alat)
               b(1) = (  1.000000  0.000000  0.000000 )  
               b(2) = (  0.000000  1.000000  0.000000 )  
               b(3) = (  0.000000  0.000000  1.000000 )  


     PseudoPot. # 1 for hy read from file:
     /root/q-e/pseudo/H_US.van
     MD5 check sum: a9a9bfe98ff56cf4de197d71fc46bb44
     Pseudo is Ultrasoft, Zval =  1.0
     Generated by Vanderbilt code, v. 7.3.2
     Using radial grid of  399 points,  1 beta functions with: 
                l(1) =   0
     Q(r) pseudized with  8 coefficients,  rinner =    0.500

     atomic species   valence    mass     pseudopotential
        H              1.00     1.00784     hy( 1.00)

      8 Sym. Ops. (no inversion) found


                                    s                        frac. trans.

      isym =  1     identity                                     

 cryst.   s( 1) = (     1          0          0      )
                  (     0          1          0      )
                  (     0          0          1      )

 cart.    s( 1) = (  1.0000000  0.0000000  0.0000000 )
                  (  0.0000000  1.0000000  0.0000000 )
                  (  0.0000000  0.0000000  1.0000000 )


      isym =  2     180 deg rotation - cart. axis [1,0,0]        

 cryst.   s( 2) = (     1          0          0      )
                  (     0         -1          0      )
                  (     0          0         -1      )

 cart.    s( 2) = (  1.0000000  0.0000000  0.0000000 )
                  (  0.0000000 -1.0000000  0.0000000 )
                  (  0.0000000  0.0000000 -1.0000000 )


      isym =  3      90 deg rotation - cart. axis [-1,0,0]       

 cryst.   s( 3) = (     1          0          0      )
                  (     0          0         -1      )
                  (     0          1          0      )

 cart.    s( 3) = (  1.0000000  0.0000000  0.0000000 )
                  (  0.0000000  0.0000000  1.0000000 )
                  (  0.0000000 -1.0000000  0.0000000 )


      isym =  4      90 deg rotation - cart. axis [1,0,0]        

 cryst.   s( 4) = (     1          0          0      )
                  (     0          0          1      )
                  (     0         -1          0      )

 cart.    s( 4) = (  1.0000000  0.0000000  0.0000000 )
                  (  0.0000000  0.0000000 -1.0000000 )
                  (  0.0000000  1.0000000  0.0000000 )


      isym =  5     inv. 180 deg rotation - cart. axis [0,0,1]   

 cryst.   s( 5) = (     1          0          0      )
                  (     0          1          0      )
                  (     0          0         -1      )

 cart.    s( 5) = (  1.0000000  0.0000000  0.0000000 )
                  (  0.0000000  1.0000000  0.0000000 )
                  (  0.0000000  0.0000000 -1.0000000 )


      isym =  6     inv. 180 deg rotation - cart. axis [0,1,0]   

 cryst.   s( 6) = (     1          0          0      )
                  (     0         -1          0      )
                  (     0          0          1      )

 cart.    s( 6) = (  1.0000000  0.0000000  0.0000000 )
                  (  0.0000000 -1.0000000  0.0000000 )
                  (  0.0000000  0.0000000  1.0000000 )


      isym =  7     inv. 180 deg rotation - cart. axis [0,1,1]   

 cryst.   s( 7) = (     1          0          0      )
                  (     0          0         -1      )
                  (     0         -1          0      )

 cart.    s( 7) = (  1.0000000  0.0000000  0.0000000 )
                  (  0.0000000  0.0000000 -1.0000000 )
                  (  0.0000000 -1.0000000  0.0000000 )


      isym =  8     inv. 180 deg rotation - cart. axis [0,1,-1]  

 cryst.   s( 8) = (     1          0          0      )
                  (     0          0          1      )
                  (     0          1          0      )

 cart.    s( 8) = (  1.0000000  0.0000000  0.0000000 )
                  (  0.0000000  0.0000000  1.0000000 )
                  (  0.0000000  1.0000000  0.0000000 )


     point group C_4v (4mm) 
     there are  5 classes
     the character table:

       E     2C4   C2    2s_v  2s_d 
A_1    1.00  1.00  1.00  1.00  1.00
A_2    1.00  1.00  1.00 -1.00 -1.00
B_1    1.00 -1.00  1.00  1.00 -1.00
B_2    1.00 -1.00  1.00 -1.00  1.00
E      2.00  0.00 -2.00  0.00  0.00

     the symmetry operations in each class and the name of the first element:

     E        1
          identity                                               
     2C4      3    4
           90 deg rotation - cart. axis [-1,0,0]                 
     C2       2
          180 deg rotation - cart. axis [1,0,0]                  
     2s_v     5    6
          inv. 180 deg rotation - cart. axis [0,0,1]             
     2s_d     7    8
          inv. 180 deg rotation - cart. axis [0,1,1]             

   Cartesian axes

     site n.     atom                  positions (alat units)
         1           H   tau(   1) = (   0.0000000   0.0000000   0.0000000  )
         2           H   tau(   2) = (   0.0516525   0.0000000   0.0000000  )

   Crystallographic axes

     site n.     atom                  positions (cryst. coord.)
         1           H   tau(   1) = (  0.0000000  0.0000000  0.0000000  )
         2           H   tau(   2) = (  0.0516525  0.0000000  0.0000000  )

     number of k points=     1
                       cart. coord. in units 2pi/alat
        k(    1) = (  -0.5000000  -0.5000000  -0.5000000), wk =   2.0000000

                       cryst. coord.
        k(    1) = (  -0.5000000  -0.5000000  -0.5000000), wk =   2.0000000

     Dense  grid:   455863 G-vectors     FFT dimensions: (  96,  96,  96)

     Dynamical RAM for                 wfc:       1.74 MB

     Dynamical RAM for     wfc (w. buffer):       1.74 MB

     Dynamical RAM for           str. fact:       6.96 MB

     Dynamical RAM for           local pot:       0.00 MB

     Dynamical RAM for          nlocal pot:       1.74 MB

     Dynamical RAM for                qrad:       0.01 MB

     Dynamical RAM for          rho,v,vnew:      41.12 MB

     Dynamical RAM for               rhoin:      13.71 MB

     Dynamical RAM for            rho*nmix:     111.29 MB

     Dynamical RAM for           G-vectors:      29.56 MB

     Dynamical RAM for          h,s,v(r/c):       0.00 MB

     Dynamical RAM for          <psi|beta>:       0.00 MB

     Dynamical RAM for                 psi:       3.48 MB

     Dynamical RAM for                hpsi:       3.48 MB

     Dynamical RAM for                spsi:       3.48 MB

     Dynamical RAM for      wfcinit/wfcrot:       3.48 MB

     Dynamical RAM for           addusdens:      41.74 MB

     Dynamical RAM for          addusforce:      59.13 MB

     Estimated static dynamical RAM per process >     142.49 MB

     Estimated max dynamical RAM per process >     312.91 MB

     Initial potential from superposition of free atoms

     starting charge       2.0000, renormalised to       2.0000

     negative rho (up, down):  3.011E-02 0.000E+00
     Starting wfcs are    2 randomized atomic wfcs

     total cpu time spent up to now is        0.8 secs

     Self-consistent Calculation

     iteration #  1     ecut=    25.00 Ry     beta= 0.70
     Davidson diagonalization with overlap

---- Real-time Memory Report at c_bands before calling an iterative solver
           243 MiB given to the printing process from OS
             0 MiB allocation reported by mallinfo(arena+hblkhd)
           377 MiB available memory on the node where the printing process lives
------------------
     ethr =  1.00E-02,  avg # of iterations =  3.0

     negative rho (up, down):  3.908E-02 0.000E+00

     total cpu time spent up to now is        1.6 secs

     total energy              =      -2.30790050 Ry
     estimated scf accuracy    <       0.09409446 Ry

     iteration #  2     ecut=    25.00 Ry     beta= 0.70
     Davidson diagonalization with overlap

---- Real-time Memory Report at c_bands before calling an iterative solver
           306 MiB given to the printing process from OS
             0 MiB allocation reported by mallinfo(arena+hblkhd)
           252 MiB available memory on the node where the printing process lives
------------------
     ethr =  4.70E-03,  avg # of iterations =  2.0

     negative rho (up, down):  4.075E-02 0.000E+00

     total cpu time spent up to now is        2.4 secs

     total energy              =      -2.31334201 Ry
     estimated scf accuracy    <       0.00104996 Ry

     iteration #  3     ecut=    25.00 Ry     beta= 0.70
     Davidson diagonalization with overlap

---- Real-time Memory Report at c_bands before calling an iterative solver
           320 MiB given to the printing process from OS
             0 MiB allocation reported by mallinfo(arena+hblkhd)
           238 MiB available memory on the node where the printing process lives
------------------
     ethr =  5.25E-05,  avg # of iterations = 11.0

     negative rho (up, down):  4.044E-02 0.000E+00

     total cpu time spent up to now is        3.4 secs

     total energy              =      -2.31386167 Ry
     estimated scf accuracy    <       0.00001340 Ry

     iteration #  4     ecut=    25.00 Ry     beta= 0.70
     Davidson diagonalization with overlap

---- Real-time Memory Report at c_bands before calling an iterative solver
           334 MiB given to the printing process from OS
             0 MiB allocation reported by mallinfo(arena+hblkhd)
           224 MiB available memory on the node where the printing process lives
------------------
     ethr =  6.70E-07,  avg # of iterations =  5.0

     negative rho (up, down):  4.042E-02 0.000E+00

     total cpu time spent up to now is        4.3 secs

     total energy              =      -2.31387952 Ry
     estimated scf accuracy    <       0.00000040 Ry

     iteration #  5     ecut=    25.00 Ry     beta= 0.70
     Davidson diagonalization with overlap

---- Real-time Memory Report at c_bands before calling an iterative solver
           348 MiB given to the printing process from OS
             0 MiB allocation reported by mallinfo(arena+hblkhd)
           210 MiB available memory on the node where the printing process lives
------------------
     ethr =  1.99E-08,  avg # of iterations =  2.0

     negative rho (up, down):  4.042E-02 0.000E+00

     total cpu time spent up to now is        5.0 secs

     End of self-consistent calculation

          k =-0.5000-0.5000-0.5000 ( 57016 PWs)   bands (ev):

   -10.0487  -0.9888

     occupation numbers 
     1.0000   0.0000

     highest occupied, lowest unoccupied level (ev):   -10.0487   -0.9888

!    total energy              =      -2.31386601 Ry
     estimated scf accuracy    <          9.8E-09 Ry

     The total energy is the sum of the following terms:
     one-electron contribution =      -4.03423931 Ry
     hartree contribution      =       2.14852356 Ry
     xc contribution           =      -1.34089403 Ry
     ewald contribution        =       0.91274377 Ry

     convergence has been achieved in   5 iterations

     Forces acting on atoms (cartesian axes, Ry/au):

     atom    1 type  1   force =     0.09283515    0.00000000    0.00000000
     atom    2 type  1   force =    -0.09283515    0.00000000    0.00000000
     The non-local contrib.  to forces
     atom    1 type  1   force =     0.10294069    0.00000000    0.00000000
     atom    2 type  1   force =    -0.10310255    0.00000000    0.00000000
     The ionic contribution  to forces
     atom    1 type  1   force =    -0.83243781   -0.00000000   -0.00000000
     atom    2 type  1   force =     0.83243781    0.00000000   -0.00000000
     The local contribution  to forces
     atom    1 type  1   force =     0.82224956    0.00000000    0.00000000
     atom    2 type  1   force =    -0.82227369    0.00000000    0.00000000
     The core correction contribution to forces
     atom    1 type  1   force =     0.00000000    0.00000000    0.00000000
     atom    2 type  1   force =     0.00000000    0.00000000    0.00000000
     The Hubbard contrib.    to forces
     atom    1 type  1   force =     0.00000000    0.00000000    0.00000000
     atom    2 type  1   force =     0.00000000    0.00000000    0.00000000
     The SCF correction term to forces
     atom    1 type  1   force =     0.00000430   -0.00000000   -0.00000000
     atom    2 type  1   force =     0.00002485   -0.00000000   -0.00000000

     Total force =     0.131289     Total SCF correction =     0.000025

     BFGS Geometry Optimization
     Energy error            =      0.0E+00 Ry
     Gradient error          =      9.3E-02 Ry/Bohr

     number of scf cycles    =   1
     number of bfgs steps    =   0

     energy             new  =      -2.3138660124 Ry

     new trust radius        =       0.0928351548 bohr
     new conv_thr            =       0.0000000100 Ry


ATOMIC_POSITIONS (angstrom)
H             0.0491262483        0.0000000000        0.0000000000
H             0.7708737517        0.0000000000        0.0000000000



     Writing config-only to output data dir ./.save/
     NEW-OLD atomic charge density approx. for the potential

     negative rho (up, down):  4.049E-02 0.000E+00

     total cpu time spent up to now is        5.8 secs

     Self-consistent Calculation

     iteration #  1     ecut=    25.00 Ry     beta= 0.70
     Davidson diagonalization with overlap

---- Real-time Memory Report at c_bands before calling an iterative solver
           355 MiB given to the printing process from OS
             0 MiB allocation reported by mallinfo(arena+hblkhd)
           367 MiB available memory on the node where the printing process lives
------------------
     ethr =  1.00E-06,  avg # of iterations =  9.0

     negative rho (up, down):  4.509E-02 0.000E+00

     total cpu time spent up to now is        6.9 secs

     total energy              =      -2.31650122 Ry
     estimated scf accuracy    <       0.00260180 Ry

     iteration #  2     ecut=    25.00 Ry     beta= 0.70
     Davidson diagonalization with overlap

---- Real-time Memory Report at c_bands before calling an iterative solver
           355 MiB given to the printing process from OS
             0 MiB allocation reported by mallinfo(arena+hblkhd)
           243 MiB available memory on the node where the printing process lives
------------------
     ethr =  1.30E-04,  avg # of iterations =  1.0

     negative rho (up, down):  4.616E-02 0.000E+00

     total cpu time spent up to now is        7.7 secs

     total energy              =      -2.31602285 Ry
     estimated scf accuracy    <       0.00002702 Ry

     iteration #  3     ecut=    25.00 Ry     beta= 0.70
     Davidson diagonalization with overlap

---- Real-time Memory Report at c_bands before calling an iterative solver
           355 MiB given to the printing process from OS
             0 MiB allocation reported by mallinfo(arena+hblkhd)
           229 MiB available memory on the node where the printing process lives
------------------
     ethr =  1.35E-06,  avg # of iterations =  5.0

     negative rho (up, down):  4.638E-02 0.000E+00

     total cpu time spent up to now is        8.6 secs

     total energy              =      -2.31587116 Ry
     estimated scf accuracy    <       0.00000111 Ry

     iteration #  4     ecut=    25.00 Ry     beta= 0.70
     Davidson diagonalization with overlap

---- Real-time Memory Report at c_bands before calling an iterative solver
           355 MiB given to the printing process from OS
             0 MiB allocation reported by mallinfo(arena+hblkhd)
           215 MiB available memory on the node where the printing process lives
------------------
     ethr =  5.57E-08,  avg # of iterations =  2.0

     negative rho (up, down):  4.637E-02 0.000E+00

     total cpu time spent up to now is        9.3 secs

     End of self-consistent calculation

          k =-0.5000-0.5000-0.5000 ( 57016 PWs)   bands (ev):

   -10.5280  -1.1543

     occupation numbers 
     1.0000   0.0000

     highest occupied, lowest unoccupied level (ev):   -10.5280   -1.1543

!    total energy              =      -2.31587711 Ry
     estimated scf accuracy    <          3.4E-09 Ry

     The total energy is the sum of the following terms:
     one-electron contribution =      -4.28046342 Ry
     hartree contribution      =       2.27798424 Ry
     xc contribution           =      -1.40175873 Ry
     ewald contribution        =       1.08836080 Ry

     convergence has been achieved in   4 iterations

     Forces acting on atoms (cartesian axes, Ry/au):

     atom    1 type  1   force =    -0.04372317    0.00000000    0.00000000
     atom    2 type  1   force =     0.04372317    0.00000000    0.00000000
     The non-local contrib.  to forces
     atom    1 type  1   force =     0.10891242    0.00000000    0.00000000
     atom    2 type  1   force =    -0.10843009    0.00000000    0.00000000
     The ionic contribution  to forces
     atom    1 type  1   force =    -1.07470594    0.00000000   -0.00000000
     atom    2 type  1   force =     1.07470594   -0.00000000   -0.00000000
     The local contribution  to forces
     atom    1 type  1   force =     0.92231349    0.00000000    0.00000000
     atom    2 type  1   force =    -0.92229100    0.00000000    0.00000000
     The core correction contribution to forces
     atom    1 type  1   force =     0.00000000    0.00000000    0.00000000
     atom    2 type  1   force =     0.00000000    0.00000000    0.00000000
     The Hubbard contrib.    to forces
     atom    1 type  1   force =     0.00000000    0.00000000    0.00000000
     atom    2 type  1   force =     0.00000000    0.00000000    0.00000000
     The SCF correction term to forces
     atom    1 type  1   force =    -0.00009382    0.00000000    0.00000000
     atom    2 type  1   force =    -0.00011236   -0.00000000   -0.00000000

     Total force =     0.061834     Total SCF correction =     0.000146
     Energy error            =      2.0E-03 Ry
     Gradient error          =      4.4E-02 Ry/Bohr

     number of scf cycles    =   2
     number of bfgs steps    =   1

     energy             old  =      -2.3138660124 Ry
     energy             new  =      -2.3158771108 Ry

     CASE: energy            _new < energy            _old

     new trust radius        =       0.0297239110 bohr
     new conv_thr            =       0.0000000020 Ry


ATOMIC_POSITIONS (angstrom)
H             0.0333970320        0.0000000000        0.0000000000
H             0.7866029680        0.0000000000        0.0000000000



     Writing config-only to output data dir ./.save/
     NEW-OLD atomic charge density approx. for the potential

     negative rho (up, down):  4.641E-02 0.000E+00

     total cpu time spent up to now is       10.2 secs

     Self-consistent Calculation

     iteration #  1     ecut=    25.00 Ry     beta= 0.70
     Davidson diagonalization with overlap

---- Real-time Memory Report at c_bands before calling an iterative solver
           355 MiB given to the printing process from OS
             0 MiB allocation reported by mallinfo(arena+hblkhd)
           367 MiB available memory on the node where the printing process lives
------------------
     ethr =  1.00E-06,  avg # of iterations =  6.0

     negative rho (up, down):  4.514E-02 0.000E+00

     total cpu time spent up to now is       11.1 secs

     total energy              =      -2.31762582 Ry
     estimated scf accuracy    <       0.00029317 Ry

     iteration #  2     ecut=    25.00 Ry     beta= 0.70
     Davidson diagonalization with overlap

---- Real-time Memory Report at c_bands before calling an iterative solver
           355 MiB given to the printing process from OS
             0 MiB allocation reported by mallinfo(arena+hblkhd)
           243 MiB available memory on the node where the printing process lives
------------------
     ethr =  1.47E-05,  avg # of iterations =  1.0

     negative rho (up, down):  4.491E-02 0.000E+00

     total cpu time spent up to now is       11.8 secs

     total energy              =      -2.31781129 Ry
     estimated scf accuracy    <       0.00000333 Ry

     iteration #  3     ecut=    25.00 Ry     beta= 0.70
     Davidson diagonalization with overlap

---- Real-time Memory Report at c_bands before calling an iterative solver
           355 MiB given to the printing process from OS
             0 MiB allocation reported by mallinfo(arena+hblkhd)
           229 MiB available memory on the node where the printing process lives
------------------
     ethr =  1.66E-07,  avg # of iterations =  2.0

     negative rho (up, down):  4.487E-02 0.000E+00

     total cpu time spent up to now is       12.6 secs

     total energy              =      -2.31784328 Ry
     estimated scf accuracy    <       0.00000017 Ry

     iteration #  4     ecut=    25.00 Ry     beta= 0.70
     Davidson diagonalization with overlap

---- Real-time Memory Report at c_bands before calling an iterative solver
           355 MiB given to the printing process from OS
             0 MiB allocation reported by mallinfo(arena+hblkhd)
           215 MiB available memory on the node where the printing process lives
------------------
     ethr =  8.45E-09,  avg # of iterations =  2.0

     negative rho (up, down):  4.487E-02 0.000E+00

     total cpu time spent up to now is       13.4 secs

     total energy              =      -2.31784922 Ry
     estimated scf accuracy    <          3.0E-09 Ry

     iteration #  5     ecut=    25.00 Ry     beta= 0.70
     Davidson diagonalization with overlap

---- Real-time Memory Report at c_bands before calling an iterative solver
           356 MiB given to the printing process from OS
             0 MiB allocation reported by mallinfo(arena+hblkhd)
           202 MiB available memory on the node where the printing process lives
------------------
     ethr =  1.52E-10,  avg # of iterations =  3.0

     negative rho (up, down):  4.488E-02 0.000E+00

     total cpu time spent up to now is       14.1 secs

     End of self-consistent calculation

          k =-0.5000-0.5000-0.5000 ( 57016 PWs)   bands (ev):

   -10.3688  -1.1258

     occupation numbers 
     1.0000   0.0000

     highest occupied, lowest unoccupied level (ev):   -10.3688   -1.1258

!    total energy              =      -2.31784374 Ry
     estimated scf accuracy    <          1.1E-09 Ry

     The total energy is the sum of the following terms:
     one-electron contribution =      -4.19860705 Ry
     hartree contribution      =       2.23512808 Ry
     xc contribution           =      -1.38150665 Ry
     ewald contribution        =       1.02714188 Ry

     convergence has been achieved in   5 iterations

     Forces acting on atoms (cartesian axes, Ry/au):

     atom    1 type  1   force =     0.01078789    0.00000000    0.00000000
     atom    2 type  1   force =    -0.01078789    0.00000000    0.00000000
     The non-local contrib.  to forces
     atom    1 type  1   force =     0.10816261    0.00000000    0.00000000
     atom    2 type  1   force =    -0.10797942    0.00000000    0.00000000
     The ionic contribution  to forces
     atom    1 type  1   force =    -0.98675461    0.00000000   -0.00000000
     atom    2 type  1   force =     0.98675461   -0.00000000   -0.00000000
     The local contribution  to forces
     atom    1 type  1   force =     0.88952599    0.00000000    0.00000000
     atom    2 type  1   force =    -0.88949093    0.00000000    0.00000000
     The core correction contribution to forces
     atom    1 type  1   force =     0.00000000    0.00000000    0.00000000
     atom    2 type  1   force =     0.00000000    0.00000000    0.00000000
     The Hubbard contrib.    to forces
     atom    1 type  1   force =     0.00000000    0.00000000    0.00000000
     atom    2 type  1   force =     0.00000000    0.00000000    0.00000000
     The SCF correction term to forces
     atom    1 type  1   force =     0.00003523   -0.00000000   -0.00000000
     atom    2 type  1   force =     0.00010918   -0.00000000   -0.00000000

     Total force =     0.015256     Total SCF correction =     0.000115
     Energy error            =      2.0E-03 Ry
     Gradient error          =      1.1E-02 Ry/Bohr

     number of scf cycles    =   3
     number of bfgs steps    =   2

     energy             old  =      -2.3158771108 Ry
     energy             new  =      -2.3178437423 Ry

     CASE: energy            _new < energy            _old

     new trust radius        =       0.0058824454 bohr
     new conv_thr            =       0.0000000011 Ry


ATOMIC_POSITIONS (angstrom)
H             0.0365098880        0.0000000000        0.0000000000
H             0.7834901120        0.0000000000        0.0000000000



     Writing config-only to output data dir ./.save/
     NEW-OLD atomic charge density approx. for the potential

     negative rho (up, down):  4.487E-02 0.000E+00

     total cpu time spent up to now is       14.9 secs

     Self-consistent Calculation

     iteration #  1     ecut=    25.00 Ry     beta= 0.70
     Davidson diagonalization with overlap

---- Real-time Memory Report at c_bands before calling an iterative solver
           356 MiB given to the printing process from OS
             0 MiB allocation reported by mallinfo(arena+hblkhd)
           367 MiB available memory on the node where the printing process lives
------------------
     ethr =  1.00E-06,  avg # of iterations =  2.0

     negative rho (up, down):  4.513E-02 0.000E+00

     total cpu time spent up to now is       15.7 secs

     total energy              =      -2.31773297 Ry
     estimated scf accuracy    <       0.00001046 Ry

     iteration #  2     ecut=    25.00 Ry     beta= 0.70
     Davidson diagonalization with overlap

---- Real-time Memory Report at c_bands before calling an iterative solver
           356 MiB given to the printing process from OS
             0 MiB allocation reported by mallinfo(arena+hblkhd)
           243 MiB available memory on the node where the printing process lives
------------------
     ethr =  5.23E-07,  avg # of iterations =  1.0

     negative rho (up, down):  4.520E-02 0.000E+00

     total cpu time spent up to now is       16.5 secs

     total energy              =      -2.31768627 Ry
     estimated scf accuracy    <       0.00000022 Ry

     iteration #  3     ecut=    25.00 Ry     beta= 0.70
     Davidson diagonalization with overlap

---- Real-time Memory Report at c_bands before calling an iterative solver
           356 MiB given to the printing process from OS
             0 MiB allocation reported by mallinfo(arena+hblkhd)
           229 MiB available memory on the node where the printing process lives
------------------
     ethr =  1.10E-08,  avg # of iterations =  2.0

     negative rho (up, down):  4.520E-02 0.000E+00

     total cpu time spent up to now is       17.3 secs

     total energy              =      -2.31767892 Ry
     estimated scf accuracy    <       0.00000001 Ry

     iteration #  4     ecut=    25.00 Ry     beta= 0.70
     Davidson diagonalization with overlap

---- Real-time Memory Report at c_bands before calling an iterative solver
           356 MiB given to the printing process from OS
             0 MiB allocation reported by mallinfo(arena+hblkhd)
           215 MiB available memory on the node where the printing process lives
------------------
     ethr =  5.45E-10,  avg # of iterations =  2.0

     negative rho (up, down):  4.520E-02 0.000E+00

     total cpu time spent up to now is       18.0 secs

     total energy              =      -2.31767697 Ry
     estimated scf accuracy    <          1.6E-09 Ry

     iteration #  5     ecut=    25.00 Ry     beta= 0.70
     Davidson diagonalization with overlap

---- Real-time Memory Report at c_bands before calling an iterative solver
           356 MiB given to the printing process from OS
             0 MiB allocation reported by mallinfo(arena+hblkhd)
           202 MiB available memory on the node where the printing process lives
------------------
     ethr =  8.00E-11,  avg # of iterations =  2.0

     negative rho (up, down):  4.521E-02 0.000E+00

     total cpu time spent up to now is       18.7 secs

     End of self-consistent calculation

          k =-0.5000-0.5000-0.5000 ( 57016 PWs)   bands (ev):

   -10.3995  -1.1272

     occupation numbers 
     1.0000   0.0000

     highest occupied, lowest unoccupied level (ev):   -10.3995   -1.1272

!    total energy              =      -2.31767600 Ry
     estimated scf accuracy    <          1.3E-11 Ry

     The total energy is the sum of the following terms:
     one-electron contribution =      -4.21458719 Ry
     hartree contribution      =       2.24352162 Ry
     xc contribution           =      -1.38545819 Ry
     ewald contribution        =       1.03884776 Ry

     convergence has been achieved in   5 iterations

     Forces acting on atoms (cartesian axes, Ry/au):

     atom    1 type  1   force =     0.00087232    0.00000000    0.00000000
     atom    2 type  1   force =    -0.00087232    0.00000000    0.00000000
     The non-local contrib.  to forces
     atom    1 type  1   force =     0.10826721    0.00000000    0.00000000
     atom    2 type  1   force =    -0.10813866    0.00000000    0.00000000
     The ionic contribution  to forces
     atom    1 type  1   force =    -1.00328254   -0.00000000   -0.00000000
     atom    2 type  1   force =     1.00328254   -0.00000000   -0.00000000
     The local contribution  to forces
     atom    1 type  1   force =     0.89599061    0.00000000    0.00000000
     atom    2 type  1   force =    -0.89592536    0.00000000    0.00000000
     The core correction contribution to forces
     atom    1 type  1   force =     0.00000000    0.00000000    0.00000000
     atom    2 type  1   force =     0.00000000    0.00000000    0.00000000
     The Hubbard contrib.    to forces
     atom    1 type  1   force =     0.00000000    0.00000000    0.00000000
     atom    2 type  1   force =     0.00000000    0.00000000    0.00000000
     The SCF correction term to forces
     atom    1 type  1   force =     0.00000231    0.00000000   -0.00000000
     atom    2 type  1   force =     0.00001443   -0.00000000    0.00000000

     Total force =     0.001234     Total SCF correction =     0.000015
     Energy error            =      1.7E-04 Ry
     Gradient error          =      8.7E-04 Ry/Bohr

     number of scf cycles    =   4
     number of bfgs steps    =   3

     energy             old  =      -2.3178437423 Ry
     energy             new  =      -2.3176759998 Ry

     CASE: energy            _new > energy            _old

     new trust radius        =       0.0012668639 bohr
     new conv_thr            =       0.0000000011 Ry


ATOMIC_POSITIONS (angstrom)
H             0.0340674275        0.0000000000        0.0000000000
H             0.7859325725        0.0000000000        0.0000000000



     Writing config-only to output data dir ./.save/
     NEW-OLD atomic charge density approx. for the potential

     negative rho (up, down):  4.521E-02 0.000E+00

     total cpu time spent up to now is       19.5 secs

     Self-consistent Calculation

     iteration #  1     ecut=    25.00 Ry     beta= 0.70
     Davidson diagonalization with overlap

---- Real-time Memory Report at c_bands before calling an iterative solver
           356 MiB given to the printing process from OS
             0 MiB allocation reported by mallinfo(arena+hblkhd)
           367 MiB available memory on the node where the printing process lives
------------------
     ethr =  1.00E-06,  avg # of iterations =  2.0

     negative rho (up, down):  4.500E-02 0.000E+00

     total cpu time spent up to now is       20.3 secs

     total energy              =      -2.31777537 Ry
     estimated scf accuracy    <       0.00000644 Ry

     iteration #  2     ecut=    25.00 Ry     beta= 0.70
     Davidson diagonalization with overlap

---- Real-time Memory Report at c_bands before calling an iterative solver
           356 MiB given to the printing process from OS
             0 MiB allocation reported by mallinfo(arena+hblkhd)
           243 MiB available memory on the node where the printing process lives
------------------
     ethr =  3.22E-07,  avg # of iterations =  1.0

     negative rho (up, down):  4.495E-02 0.000E+00

     total cpu time spent up to now is       21.0 secs

     total energy              =      -2.31781675 Ry
     estimated scf accuracy    <       0.00000017 Ry

     iteration #  3     ecut=    25.00 Ry     beta= 0.70
     Davidson diagonalization with overlap

---- Real-time Memory Report at c_bands before calling an iterative solver
           356 MiB given to the printing process from OS
             0 MiB allocation reported by mallinfo(arena+hblkhd)
           229 MiB available memory on the node where the printing process lives
------------------
     ethr =  8.28E-09,  avg # of iterations =  2.0

     negative rho (up, down):  4.495E-02 0.000E+00

     total cpu time spent up to now is       21.8 secs

     total energy              =      -2.31781171 Ry
     estimated scf accuracy    <       0.00000002 Ry

     iteration #  4     ecut=    25.00 Ry     beta= 0.70
     Davidson diagonalization with overlap

---- Real-time Memory Report at c_bands before calling an iterative solver
           356 MiB given to the printing process from OS
             0 MiB allocation reported by mallinfo(arena+hblkhd)
           215 MiB available memory on the node where the printing process lives
------------------
     ethr =  8.04E-10,  avg # of iterations =  2.0

     negative rho (up, down):  4.495E-02 0.000E+00

     total cpu time spent up to now is       22.5 secs

     total energy              =      -2.31781348 Ry
     estimated scf accuracy    <          9.0E-09 Ry

     iteration #  5     ecut=    25.00 Ry     beta= 0.70
     Davidson diagonalization with overlap

---- Real-time Memory Report at c_bands before calling an iterative solver
           356 MiB given to the printing process from OS
             0 MiB allocation reported by mallinfo(arena+hblkhd)
           202 MiB available memory on the node where the printing process lives
------------------
     ethr =  4.48E-10,  avg # of iterations =  2.0

     negative rho (up, down):  4.494E-02 0.000E+00

     total cpu time spent up to now is       23.3 secs

     End of self-consistent calculation

          k =-0.5000-0.5000-0.5000 ( 57016 PWs)   bands (ev):

   -10.3752  -1.1288

     occupation numbers 
     1.0000   0.0000

     highest occupied, lowest unoccupied level (ev):   -10.3752   -1.1288

!    total energy              =      -2.31781989 Ry
     estimated scf accuracy    <          3.2E-10 Ry

     The total energy is the sum of the following terms:
     one-electron contribution =      -4.20200765 Ry
     hartree contribution      =       2.23687394 Ry
     xc contribution           =      -1.38233269 Ry
     ewald contribution        =       1.02964650 Ry

     convergence has been achieved in   5 iterations

     Forces acting on atoms (cartesian axes, Ry/au):

     atom    1 type  1   force =     0.00870159    0.00000000    0.00000000
     atom    2 type  1   force =    -0.00870159    0.00000000    0.00000000
     The non-local contrib.  to forces
     atom    1 type  1   force =     0.10820965    0.00000000    0.00000000
     atom    2 type  1   force =    -0.10797804    0.00000000    0.00000000
     The ionic contribution  to forces
     atom    1 type  1   force =    -0.99027946   -0.00000000   -0.00000000
     atom    2 type  1   force =     0.99027946   -0.00000000   -0.00000000
     The local contribution  to forces
     atom    1 type  1   force =     0.89089933    0.00000000    0.00000000
     atom    2 type  1   force =    -0.89084025    0.00000000    0.00000000
     The core correction contribution to forces
     atom    1 type  1   force =     0.00000000    0.00000000    0.00000000
     atom    2 type  1   force =     0.00000000    0.00000000    0.00000000
     The Hubbard contrib.    to forces
     atom    1 type  1   force =     0.00000000    0.00000000    0.00000000
     atom    2 type  1   force =     0.00000000    0.00000000    0.00000000
     The SCF correction term to forces
     atom    1 type  1   force =     0.00005367    0.00000000    0.00000000
     atom    2 type  1   force =     0.00001883   -0.00000000   -0.00000000

     Total force =     0.012306     Total SCF correction =     0.000057
     Energy error            =      2.4E-05 Ry
     Gradient error          =      8.7E-03 Ry/Bohr

     number of scf cycles    =   5
     number of bfgs steps    =   3

     energy             old  =      -2.3178437423 Ry
     energy             new  =      -2.3178198927 Ry

     CASE: energy            _new > energy            _old

     new trust radius        =       0.0003382744 bohr
     new conv_thr            =       0.0000000011 Ry


ATOMIC_POSITIONS (angstrom)
H             0.0335760391        0.0000000000        0.0000000000
H             0.7864239609        0.0000000000        0.0000000000



     Writing config-only to output data dir ./.save/
     NEW-OLD atomic charge density approx. for the potential

     negative rho (up, down):  4.494E-02 0.000E+00

     total cpu time spent up to now is       24.0 secs

     Self-consistent Calculation

     iteration #  1     ecut=    25.00 Ry     beta= 0.70
     Davidson diagonalization with overlap

---- Real-time Memory Report at c_bands before calling an iterative solver
           356 MiB given to the printing process from OS
             0 MiB allocation reported by mallinfo(arena+hblkhd)
           367 MiB available memory on the node where the printing process lives
------------------
     ethr =  1.00E-06,  avg # of iterations =  2.0

     Threshold (ethr) on eigenvalues was too large:
     Diagonalizing with lowered threshold

     Davidson diagonalization with overlap

---- Real-time Memory Report at c_bands before calling an iterative solver
           356 MiB given to the printing process from OS
             0 MiB allocation reported by mallinfo(arena+hblkhd)
           369 MiB available memory on the node where the printing process lives
------------------
     ethr =  1.14E-08,  avg # of iterations =  1.0

     negative rho (up, down):  4.491E-02 0.000E+00

     total cpu time spent up to now is       25.1 secs

     total energy              =      -2.31782956 Ry
     estimated scf accuracy    <       0.00000025 Ry

     iteration #  2     ecut=    25.00 Ry     beta= 0.70
     Davidson diagonalization with overlap

---- Real-time Memory Report at c_bands before calling an iterative solver
           356 MiB given to the printing process from OS
             0 MiB allocation reported by mallinfo(arena+hblkhd)
           243 MiB available memory on the node where the printing process lives
------------------
     ethr =  1.23E-08,  avg # of iterations =  2.0

     negative rho (up, down):  4.490E-02 0.000E+00

     total cpu time spent up to now is       25.8 secs

     total energy              =      -2.31783856 Ry
     estimated scf accuracy    <          4.1E-09 Ry

     iteration #  3     ecut=    25.00 Ry     beta= 0.70
     Davidson diagonalization with overlap

---- Real-time Memory Report at c_bands before calling an iterative solver
           356 MiB given to the printing process from OS
             0 MiB allocation reported by mallinfo(arena+hblkhd)
           229 MiB available memory on the node where the printing process lives
------------------
     ethr =  2.07E-10,  avg # of iterations =  3.0

     negative rho (up, down):  4.489E-02 0.000E+00

     total cpu time spent up to now is       26.6 secs

     End of self-consistent calculation

          k =-0.5000-0.5000-0.5000 ( 57016 PWs)   bands (ev):

   -10.3704  -1.1271

     occupation numbers 
     1.0000   0.0000

     highest occupied, lowest unoccupied level (ev):   -10.3704   -1.1271

!    total energy              =      -2.31783668 Ry
     estimated scf accuracy    <          1.2E-10 Ry

     The total energy is the sum of the following terms:
     one-electron contribution =      -4.19951221 Ry
     hartree contribution      =       2.23559008 Ry
     xc contribution           =      -1.38172433 Ry
     ewald contribution        =       1.02780978 Ry

     convergence has been achieved in   3 iterations

     Forces acting on atoms (cartesian axes, Ry/au):

     atom    1 type  1   force =     0.01025882    0.00000000    0.00000000
     atom    2 type  1   force =    -0.01025882    0.00000000    0.00000000
     The non-local contrib.  to forces
     atom    1 type  1   force =     0.10819464    0.00000000    0.00000000
     atom    2 type  1   force =    -0.10797320    0.00000000    0.00000000
     The ionic contribution  to forces
     atom    1 type  1   force =    -0.98769396    0.00000000   -0.00000000
     atom    2 type  1   force =     0.98769396   -0.00000000   -0.00000000
     The local contribution  to forces
     atom    1 type  1   force =     0.88989196    0.00000000    0.00000000
     atom    2 type  1   force =    -0.88984169    0.00000000    0.00000000
     The core correction contribution to forces
     atom    1 type  1   force =     0.00000000    0.00000000    0.00000000
     atom    2 type  1   force =     0.00000000    0.00000000    0.00000000
     The Hubbard contrib.    to forces
     atom    1 type  1   force =     0.00000000    0.00000000    0.00000000
     atom    2 type  1   force =     0.00000000    0.00000000    0.00000000
     The SCF correction term to forces
     atom    1 type  1   force =     0.00004623    0.00000000    0.00000000
     atom    2 type  1   force =     0.00004216    0.00000000   -0.00000000

     Total force =     0.014508     Total SCF correction =     0.000063
     Energy error            =      7.1E-06 Ry
     Gradient error          =      1.0E-02 Ry/Bohr

     number of scf cycles    =   6
     number of bfgs steps    =   3

     energy             old  =      -2.3178437423 Ry
     energy             new  =      -2.3178366752 Ry

     CASE: energy            _new > energy            _old

     new trust radius        =       0.0000859311 bohr

     trust_radius < trust_radius_min

     resetting bfgs history

     new conv_thr            =       0.0000000011 Ry


ATOMIC_POSITIONS (angstrom)
H             0.0391057391        0.0000000000        0.0000000000
H             0.7808942609        0.0000000000        0.0000000000



     Writing config-only to output data dir ./.save/
     NEW-OLD atomic charge density approx. for the potential

     negative rho (up, down):  4.487E-02 0.000E+00

     total cpu time spent up to now is       27.4 secs

     Self-consistent Calculation

     iteration #  1     ecut=    25.00 Ry     beta= 0.70
     Davidson diagonalization with overlap

---- Real-time Memory Report at c_bands before calling an iterative solver
           356 MiB given to the printing process from OS
             0 MiB allocation reported by mallinfo(arena+hblkhd)
           367 MiB available memory on the node where the printing process lives
------------------
     ethr =  1.00E-06,  avg # of iterations =  3.0

     negative rho (up, down):  4.535E-02 0.000E+00

     total cpu time spent up to now is       28.2 secs

     total energy              =      -2.31754286 Ry
     estimated scf accuracy    <       0.00003520 Ry

     iteration #  2     ecut=    25.00 Ry     beta= 0.70
     Davidson diagonalization with overlap

---- Real-time Memory Report at c_bands before calling an iterative solver
           356 MiB given to the printing process from OS
             0 MiB allocation reported by mallinfo(arena+hblkhd)
           243 MiB available memory on the node where the printing process lives
------------------
     ethr =  1.76E-06,  avg # of iterations =  1.0

     negative rho (up, down):  4.546E-02 0.000E+00

     total cpu time spent up to now is       28.9 secs

     total energy              =      -2.31747804 Ry
     estimated scf accuracy    <       0.00000046 Ry

     iteration #  3     ecut=    25.00 Ry     beta= 0.70
     Davidson diagonalization with overlap

---- Real-time Memory Report at c_bands before calling an iterative solver
           356 MiB given to the printing process from OS
             0 MiB allocation reported by mallinfo(arena+hblkhd)
           229 MiB available memory on the node where the printing process lives
------------------
     ethr =  2.32E-08,  avg # of iterations =  2.0

     negative rho (up, down):  4.547E-02 0.000E+00

     total cpu time spent up to now is       29.7 secs

     total energy              =      -2.31746410 Ry
     estimated scf accuracy    <       0.00000002 Ry

     iteration #  4     ecut=    25.00 Ry     beta= 0.70
     Davidson diagonalization with overlap

---- Real-time Memory Report at c_bands before calling an iterative solver
           356 MiB given to the printing process from OS
             0 MiB allocation reported by mallinfo(arena+hblkhd)
           215 MiB available memory on the node where the printing process lives
------------------
     ethr =  1.08E-09,  avg # of iterations =  2.0

     negative rho (up, down):  4.547E-02 0.000E+00

     total cpu time spent up to now is       30.4 secs

     total energy              =      -2.31746625 Ry
     estimated scf accuracy    <          1.4E-09 Ry

     iteration #  5     ecut=    25.00 Ry     beta= 0.70
     Davidson diagonalization with overlap

---- Real-time Memory Report at c_bands before calling an iterative solver
           356 MiB given to the printing process from OS
             0 MiB allocation reported by mallinfo(arena+hblkhd)
           201 MiB available memory on the node where the printing process lives
------------------
     ethr =  7.04E-11,  avg # of iterations =  3.0

     negative rho (up, down):  4.547E-02 0.000E+00

     total cpu time spent up to now is       31.2 secs

     End of self-consistent calculation

          k =-0.5000-0.5000-0.5000 ( 57016 PWs)   bands (ev):

   -10.4250  -1.1356

     occupation numbers 
     1.0000   0.0000

     highest occupied, lowest unoccupied level (ev):   -10.4250   -1.1356

!    total energy              =      -2.31746280 Ry
     estimated scf accuracy    <          5.5E-11 Ry

     The total energy is the sum of the following terms:
     one-electron contribution =      -4.22804043 Ry
     hartree contribution      =       2.25063643 Ry
     xc contribution           =      -1.38881859 Ry
     ewald contribution        =       1.04875979 Ry

     convergence has been achieved in   5 iterations

     Forces acting on atoms (cartesian axes, Ry/au):

     atom    1 type  1   force =    -0.00750881    0.00000000    0.00000000
     atom    2 type  1   force =     0.00750881    0.00000000    0.00000000
     The non-local contrib.  to forces
     atom    1 type  1   force =     0.10861156    0.00000000    0.00000000
     atom    2 type  1   force =    -0.10838903    0.00000000    0.00000000
     The ionic contribution  to forces
     atom    1 type  1   force =    -1.01738473    0.00000000   -0.00000000
     atom    2 type  1   force =     1.01738473    0.00000000   -0.00000000
     The local contribution  to forces
     atom    1 type  1   force =     0.90139907    0.00000000    0.00000000
     atom    2 type  1   force =    -0.90135317    0.00000000    0.00000000
     The core correction contribution to forces
     atom    1 type  1   force =     0.00000000    0.00000000    0.00000000
     atom    2 type  1   force =     0.00000000    0.00000000    0.00000000
     The Hubbard contrib.    to forces
     atom    1 type  1   force =     0.00000000    0.00000000    0.00000000
     atom    2 type  1   force =     0.00000000    0.00000000    0.00000000
     The SCF correction term to forces
     atom    1 type  1   force =    -0.00001270    0.00000000   -0.00000000
     atom    2 type  1   force =    -0.00001171   -0.00000000   -0.00000000

     Total force =     0.010619     Total SCF correction =     0.000017
     Energy error            =      3.8E-04 Ry
     Gradient error          =      7.5E-03 Ry/Bohr

     number of scf cycles    =   7
     number of bfgs steps    =   3

     energy             old  =      -2.3178437423 Ry
     energy             new  =      -2.3174628004 Ry

     CASE: energy            _new > energy            _old

     new trust radius        =       0.0020457587 bohr
     new conv_thr            =       0.0000000011 Ry


ATOMIC_POSITIONS (angstrom)
H             0.0344796009        0.0000000000        0.0000000000
H             0.7855203991        0.0000000000        0.0000000000



     Writing config-only to output data dir ./.save/
     NEW-OLD atomic charge density approx. for the potential

     negative rho (up, down):  4.548E-02 0.000E+00

     total cpu time spent up to now is       32.0 secs

     Self-consistent Calculation

     iteration #  1     ecut=    25.00 Ry     beta= 0.70
     Davidson diagonalization with overlap

---- Real-time Memory Report at c_bands before calling an iterative solver
           356 MiB given to the printing process from OS
             0 MiB allocation reported by mallinfo(arena+hblkhd)
           367 MiB available memory on the node where the printing process lives
------------------
     ethr =  1.00E-06,  avg # of iterations =  3.0

     negative rho (up, down):  4.509E-02 0.000E+00

     total cpu time spent up to now is       32.8 secs

     total energy              =      -2.31773833 Ry
     estimated scf accuracy    <       0.00002492 Ry

     iteration #  2     ecut=    25.00 Ry     beta= 0.70
     Davidson diagonalization with overlap

---- Real-time Memory Report at c_bands before calling an iterative solver
           356 MiB given to the printing process from OS
             0 MiB allocation reported by mallinfo(arena+hblkhd)
           243 MiB available memory on the node where the printing process lives
------------------
     ethr =  1.25E-06,  avg # of iterations =  1.0

     negative rho (up, down):  4.500E-02 0.000E+00

     total cpu time spent up to now is       33.5 secs

     total energy              =      -2.31779960 Ry
     estimated scf accuracy    <       0.00000035 Ry

     iteration #  3     ecut=    25.00 Ry     beta= 0.70
     Davidson diagonalization with overlap

---- Real-time Memory Report at c_bands before calling an iterative solver
           356 MiB given to the printing process from OS
             0 MiB allocation reported by mallinfo(arena+hblkhd)
           229 MiB available memory on the node where the printing process lives
------------------
     ethr =  1.74E-08,  avg # of iterations =  2.0

     negative rho (up, down):  4.499E-02 0.000E+00

     total cpu time spent up to now is       34.3 secs

     total energy              =      -2.31780802 Ry
     estimated scf accuracy    <       0.00000002 Ry

     iteration #  4     ecut=    25.00 Ry     beta= 0.70
     Davidson diagonalization with overlap

---- Real-time Memory Report at c_bands before calling an iterative solver
           356 MiB given to the printing process from OS
             0 MiB allocation reported by mallinfo(arena+hblkhd)
           215 MiB available memory on the node where the printing process lives
------------------
     ethr =  1.02E-09,  avg # of iterations =  2.0

     negative rho (up, down):  4.499E-02 0.000E+00

     total cpu time spent up to now is       35.1 secs

     total energy              =      -2.31780814 Ry
     estimated scf accuracy    <          3.0E-09 Ry

     iteration #  5     ecut=    25.00 Ry     beta= 0.70
     Davidson diagonalization with overlap

---- Real-time Memory Report at c_bands before calling an iterative solver
           356 MiB given to the printing process from OS
             0 MiB allocation reported by mallinfo(arena+hblkhd)
           201 MiB available memory on the node where the printing process lives
------------------
     ethr =  1.48E-10,  avg # of iterations =  2.0

     negative rho (up, down):  4.499E-02 0.000E+00

     total cpu time spent up to now is       35.8 secs

     End of self-consistent calculation

          k =-0.5000-0.5000-0.5000 ( 57016 PWs)   bands (ev):

   -10.3795  -1.1282

     occupation numbers 
     1.0000   0.0000

     highest occupied, lowest unoccupied level (ev):   -10.3795   -1.1282

!    total energy              =      -2.31781071 Ry
     estimated scf accuracy    <          5.0E-11 Ry

     The total energy is the sum of the following terms:
     one-electron contribution =      -4.20412216 Ry
     hartree contribution      =       2.23798806 Ry
     xc contribution           =      -1.38286746 Ry
     ewald contribution        =       1.03119085 Ry

     convergence has been achieved in   5 iterations

     Forces acting on atoms (cartesian axes, Ry/au):

     atom    1 type  1   force =     0.00737068    0.00000000    0.00000000
     atom    2 type  1   force =    -0.00737068    0.00000000    0.00000000
     The non-local contrib.  to forces
     atom    1 type  1   force =     0.10822544    0.00000000    0.00000000
     atom    2 type  1   force =    -0.10797013    0.00000000    0.00000000
     The ionic contribution  to forces
     atom    1 type  1   force =    -0.99245600    0.00000000   -0.00000000
     atom    2 type  1   force =     0.99245600   -0.00000000   -0.00000000
     The local contribution  to forces
     atom    1 type  1   force =     0.89176192    0.00000000    0.00000000
     atom    2 type  1   force =    -0.89169320    0.00000000    0.00000000
     The core correction contribution to forces
     atom    1 type  1   force =     0.00000000    0.00000000    0.00000000
     atom    2 type  1   force =     0.00000000    0.00000000    0.00000000
     The Hubbard contrib.    to forces
     atom    1 type  1   force =     0.00000000    0.00000000    0.00000000
     atom    2 type  1   force =     0.00000000    0.00000000    0.00000000
     The SCF correction term to forces
     atom    1 type  1   force =     0.00003982   -0.00000000    0.00000000
     atom    2 type  1   force =     0.00003717   -0.00000000   -0.00000000

     Total force =     0.010424     Total SCF correction =     0.000054
     Energy error            =      3.3E-05 Ry
     Gradient error          =      7.4E-03 Ry/Bohr

     number of scf cycles    =   8
     number of bfgs steps    =   3

     energy             old  =      -2.3178437423 Ry
     energy             new  =      -2.3178107087 Ry

     CASE: energy            _new > energy            _old

     new trust radius        =       0.0005850370 bohr
     new conv_thr            =       0.0000000011 Ry


ATOMIC_POSITIONS (angstrom)
H             0.0337066202        0.0000000000        0.0000000000
H             0.7862933798        0.0000000000        0.0000000000



     Writing config-only to output data dir ./.save/
     NEW-OLD atomic charge density approx. for the potential

     negative rho (up, down):  4.499E-02 0.000E+00

     total cpu time spent up to now is       36.6 secs

     Self-consistent Calculation

     iteration #  1     ecut=    25.00 Ry     beta= 0.70
     Davidson diagonalization with overlap

---- Real-time Memory Report at c_bands before calling an iterative solver
           356 MiB given to the printing process from OS
             0 MiB allocation reported by mallinfo(arena+hblkhd)
           366 MiB available memory on the node where the printing process lives
------------------
     ethr =  1.00E-06,  avg # of iterations =  2.0

     Threshold (ethr) on eigenvalues was too large:
     Diagonalizing with lowered threshold

     Davidson diagonalization with overlap

---- Real-time Memory Report at c_bands before calling an iterative solver
           356 MiB given to the printing process from OS
             0 MiB allocation reported by mallinfo(arena+hblkhd)
           369 MiB available memory on the node where the printing process lives
------------------
     ethr =  3.04E-08,  avg # of iterations =  1.0

     negative rho (up, down):  4.492E-02 0.000E+00

     total cpu time spent up to now is       37.6 secs

     total energy              =      -2.31782129 Ry
     estimated scf accuracy    <       0.00000065 Ry

     iteration #  2     ecut=    25.00 Ry     beta= 0.70
     Davidson diagonalization with overlap

---- Real-time Memory Report at c_bands before calling an iterative solver
           356 MiB given to the printing process from OS
             0 MiB allocation reported by mallinfo(arena+hblkhd)
           243 MiB available memory on the node where the printing process lives
------------------
     ethr =  3.23E-08,  avg # of iterations =  2.0

     negative rho (up, down):  4.491E-02 0.000E+00

     total cpu time spent up to now is       38.3 secs

     total energy              =      -2.31783027 Ry
     estimated scf accuracy    <          9.7E-09 Ry

     iteration #  3     ecut=    25.00 Ry     beta= 0.70
     Davidson diagonalization with overlap

---- Real-time Memory Report at c_bands before calling an iterative solver
           356 MiB given to the printing process from OS
             0 MiB allocation reported by mallinfo(arena+hblkhd)
           229 MiB available memory on the node where the printing process lives
------------------
     ethr =  4.84E-10,  avg # of iterations =  2.0

     negative rho (up, down):  4.491E-02 0.000E+00

     total cpu time spent up to now is       39.0 secs

     End of self-consistent calculation

          k =-0.5000-0.5000-0.5000 ( 57016 PWs)   bands (ev):

   -10.3719  -1.1286

     occupation numbers 
     1.0000   0.0000

     highest occupied, lowest unoccupied level (ev):   -10.3719   -1.1286

!    total energy              =      -2.31783382 Ry
     estimated scf accuracy    <          2.6E-10 Ry

     The total energy is the sum of the following terms:
     one-electron contribution =      -4.20016997 Ry
     hartree contribution      =       2.23592257 Ry
     xc contribution           =      -1.38188381 Ry
     ewald contribution        =       1.02829740 Ry

     convergence has been achieved in   3 iterations

     Forces acting on atoms (cartesian axes, Ry/au):

     atom    1 type  1   force =     0.00982566    0.00000000    0.00000000
     atom    2 type  1   force =    -0.00982566    0.00000000    0.00000000
     The non-local contrib.  to forces
     atom    1 type  1   force =     0.10819202    0.00000000    0.00000000
     atom    2 type  1   force =    -0.10796392    0.00000000    0.00000000
     The ionic contribution  to forces
     atom    1 type  1   force =    -0.98838004   -0.00000000   -0.00000000
     atom    2 type  1   force =     0.98838004   -0.00000000   -0.00000000
     The local contribution  to forces
     atom    1 type  1   force =     0.89015855    0.00000000    0.00000000
     atom    2 type  1   force =    -0.89010818    0.00000000    0.00000000
     The core correction contribution to forces
     atom    1 type  1   force =     0.00000000    0.00000000    0.00000000
     atom    2 type  1   force =     0.00000000    0.00000000    0.00000000
     The Hubbard contrib.    to forces
     atom    1 type  1   force =     0.00000000    0.00000000    0.00000000
     atom    2 type  1   force =     0.00000000    0.00000000    0.00000000
     The SCF correction term to forces
     atom    1 type  1   force =     0.00004151   -0.00000000    0.00000000
     atom    2 type  1   force =     0.00005280    0.00000000   -0.00000000

     Total force =     0.013896     Total SCF correction =     0.000067
     Energy error            =      9.9E-06 Ry
     Gradient error          =      9.8E-03 Ry/Bohr

     number of scf cycles    =   9
     number of bfgs steps    =   3

     energy             old  =      -2.3178437423 Ry
     energy             new  =      -2.3178338167 Ry

     CASE: energy            _new > energy            _old

     new trust radius        =       0.0001637537 bohr
     new conv_thr            =       0.0000000011 Ry


ATOMIC_POSITIONS (angstrom)
H             0.0334836867        0.0000000000        0.0000000000
H             0.7865163133        0.0000000000        0.0000000000



     Writing config-only to output data dir ./.save/
     NEW-OLD atomic charge density approx. for the potential

     negative rho (up, down):  4.491E-02 0.000E+00

     total cpu time spent up to now is       39.8 secs

     Self-consistent Calculation

     iteration #  1     ecut=    25.00 Ry     beta= 0.70
     Davidson diagonalization with overlap

---- Real-time Memory Report at c_bands before calling an iterative solver
           356 MiB given to the printing process from OS
             0 MiB allocation reported by mallinfo(arena+hblkhd)
           366 MiB available memory on the node where the printing process lives
------------------
     ethr =  1.00E-06,  avg # of iterations =  2.0

     Threshold (ethr) on eigenvalues was too large:
     Diagonalizing with lowered threshold

     Davidson diagonalization with overlap

---- Real-time Memory Report at c_bands before calling an iterative solver
           356 MiB given to the printing process from OS
             0 MiB allocation reported by mallinfo(arena+hblkhd)
           369 MiB available memory on the node where the printing process lives
------------------
     ethr =  1.95E-09,  avg # of iterations =  1.0

     negative rho (up, down):  4.489E-02 0.000E+00

     total cpu time spent up to now is       40.8 secs

     total energy              =      -2.31783533 Ry
     estimated scf accuracy    <       0.00000005 Ry

     iteration #  2     ecut=    25.00 Ry     beta= 0.70
     Davidson diagonalization with overlap

---- Real-time Memory Report at c_bands before calling an iterative solver
           356 MiB given to the printing process from OS
             0 MiB allocation reported by mallinfo(arena+hblkhd)
           243 MiB available memory on the node where the printing process lives
------------------
     ethr =  2.28E-09,  avg # of iterations =  2.0

     negative rho (up, down):  4.488E-02 0.000E+00

     total cpu time spent up to now is       41.6 secs

     total energy              =      -2.31783959 Ry
     estimated scf accuracy    <          1.7E-09 Ry

     iteration #  3     ecut=    25.00 Ry     beta= 0.70
     Davidson diagonalization with overlap

---- Real-time Memory Report at c_bands before calling an iterative solver
           356 MiB given to the printing process from OS
             0 MiB allocation reported by mallinfo(arena+hblkhd)
           229 MiB available memory on the node where the printing process lives
------------------
     ethr =  8.44E-11,  avg # of iterations =  3.0

     negative rho (up, down):  4.488E-02 0.000E+00

     total cpu time spent up to now is       42.3 secs

     End of self-consistent calculation

          k =-0.5000-0.5000-0.5000 ( 57016 PWs)   bands (ev):

   -10.3695  -1.1277

     occupation numbers 
     1.0000   0.0000

     highest occupied, lowest unoccupied level (ev):   -10.3695   -1.1277

!    total energy              =      -2.31784228 Ry
     estimated scf accuracy    <          1.8E-11 Ry

     The total energy is the sum of the following terms:
     one-electron contribution =      -4.19902965 Ry
     hartree contribution      =       2.23532367 Ry
     xc contribution           =      -1.38160142 Ry
     ewald contribution        =       1.02746512 Ry

     convergence has been achieved in   3 iterations

     Forces acting on atoms (cartesian axes, Ry/au):

     atom    1 type  1   force =     0.01061710    0.00000000    0.00000000
     atom    2 type  1   force =    -0.01061710    0.00000000    0.00000000
     The non-local contrib.  to forces
     atom    1 type  1   force =     0.10816024    0.00000000    0.00000000
     atom    2 type  1   force =    -0.10805751    0.00000000    0.00000000
     The ionic contribution  to forces
     atom    1 type  1   force =    -0.98720917    0.00000000   -0.00000000
     atom    2 type  1   force =     0.98720917    0.00000000   -0.00000000
     The local contribution  to forces
     atom    1 type  1   force =     0.88969720    0.00000000    0.00000000
     atom    2 type  1   force =    -0.88964488    0.00000000    0.00000000
     The core correction contribution to forces
     atom    1 type  1   force =     0.00000000    0.00000000    0.00000000
     atom    2 type  1   force =     0.00000000    0.00000000    0.00000000
     The Hubbard contrib.    to forces
     atom    1 type  1   force =     0.00000000    0.00000000    0.00000000
     atom    2 type  1   force =     0.00000000    0.00000000    0.00000000
     The SCF correction term to forces
     atom    1 type  1   force =     0.00002600    0.00000000   -0.00000000
     atom    2 type  1   force =    -0.00006672   -0.00000000    0.00000000

     Total force =     0.015015     Total SCF correction =     0.000072
     Energy error            =      1.5E-06 Ry
     Gradient error          =      1.1E-02 Ry/Bohr

     number of scf cycles    =  10
     number of bfgs steps    =   3

     energy             old  =      -2.3178437423 Ry
     energy             new  =      -2.3178422764 Ry

     CASE: energy            _new > energy            _old

     new trust radius        =       0.0000578675 bohr

     trust_radius < trust_radius_min

     resetting bfgs history

     new conv_thr            =       0.0000000011 Ry


ATOMIC_POSITIONS (angstrom)
H             0.0391057391        0.0000000000        0.0000000000
H             0.7808942609        0.0000000000        0.0000000000



     Writing config-only to output data dir ./.save/
     NEW-OLD atomic charge density approx. for the potential

     negative rho (up, down):  4.485E-02 0.000E+00

     total cpu time spent up to now is       43.1 secs

     Self-consistent Calculation

     iteration #  1     ecut=    25.00 Ry     beta= 0.70
     Davidson diagonalization with overlap

---- Real-time Memory Report at c_bands before calling an iterative solver
           356 MiB given to the printing process from OS
             0 MiB allocation reported by mallinfo(arena+hblkhd)
           366 MiB available memory on the node where the printing process lives
------------------
     ethr =  1.00E-06,  avg # of iterations =  3.0

     negative rho (up, down):  4.534E-02 0.000E+00

     total cpu time spent up to now is       43.9 secs

     total energy              =      -2.31754282 Ry
     estimated scf accuracy    <       0.00003646 Ry

     iteration #  2     ecut=    25.00 Ry     beta= 0.70
     Davidson diagonalization with overlap

---- Real-time Memory Report at c_bands before calling an iterative solver
           356 MiB given to the printing process from OS
             0 MiB allocation reported by mallinfo(arena+hblkhd)
           243 MiB available memory on the node where the printing process lives
------------------
     ethr =  1.82E-06,  avg # of iterations =  2.0

     negative rho (up, down):  4.545E-02 0.000E+00

     total cpu time spent up to now is       44.7 secs

     total energy              =      -2.31747876 Ry
     estimated scf accuracy    <       0.00000048 Ry

     iteration #  3     ecut=    25.00 Ry     beta= 0.70
     Davidson diagonalization with overlap

---- Real-time Memory Report at c_bands before calling an iterative solver
           356 MiB given to the printing process from OS
             0 MiB allocation reported by mallinfo(arena+hblkhd)
           229 MiB available memory on the node where the printing process lives
------------------
     ethr =  2.39E-08,  avg # of iterations =  2.0

     negative rho (up, down):  4.547E-02 0.000E+00

     total cpu time spent up to now is       45.4 secs

     total energy              =      -2.31746424 Ry
     estimated scf accuracy    <       0.00000002 Ry

     iteration #  4     ecut=    25.00 Ry     beta= 0.70
     Davidson diagonalization with overlap

---- Real-time Memory Report at c_bands before calling an iterative solver
           356 MiB given to the printing process from OS
             0 MiB allocation reported by mallinfo(arena+hblkhd)
           215 MiB available memory on the node where the printing process lives
------------------
     ethr =  1.09E-09,  avg # of iterations =  2.0

     negative rho (up, down):  4.547E-02 0.000E+00

     total cpu time spent up to now is       46.2 secs

     total energy              =      -2.31746571 Ry
     estimated scf accuracy    <          1.3E-09 Ry

     iteration #  5     ecut=    25.00 Ry     beta= 0.70
     Davidson diagonalization with overlap

---- Real-time Memory Report at c_bands before calling an iterative solver
           356 MiB given to the printing process from OS
             0 MiB allocation reported by mallinfo(arena+hblkhd)
           201 MiB available memory on the node where the printing process lives
------------------
     ethr =  6.40E-11,  avg # of iterations =  3.0

     negative rho (up, down):  4.547E-02 0.000E+00

     total cpu time spent up to now is       46.9 secs

     End of self-consistent calculation

          k =-0.5000-0.5000-0.5000 ( 57016 PWs)   bands (ev):

   -10.4250  -1.1357

     occupation numbers 
     1.0000   0.0000

     highest occupied, lowest unoccupied level (ev):   -10.4250   -1.1357

!    total energy              =      -2.31746333 Ry
     estimated scf accuracy    <          5.3E-11 Ry

     The total energy is the sum of the following terms:
     one-electron contribution =      -4.22804045 Ry
     hartree contribution      =       2.25063652 Ry
     xc contribution           =      -1.38881919 Ry
     ewald contribution        =       1.04875979 Ry

     convergence has been achieved in   5 iterations

     Forces acting on atoms (cartesian axes, Ry/au):

     atom    1 type  1   force =    -0.00751102    0.00000000    0.00000000
     atom    2 type  1   force =     0.00751102    0.00000000    0.00000000
     The non-local contrib.  to forces
     atom    1 type  1   force =     0.10861083    0.00000000    0.00000000
     atom    2 type  1   force =    -0.10838777    0.00000000    0.00000000
     The ionic contribution  to forces
     atom    1 type  1   force =    -1.01738473    0.00000000   -0.00000000
     atom    2 type  1   force =     1.01738473    0.00000000   -0.00000000
     The local contribution  to forces
     atom    1 type  1   force =     0.90139808    0.00000000    0.00000000
     atom    2 type  1   force =    -0.90135447    0.00000000    0.00000000
     The core correction contribution to forces
     atom    1 type  1   force =     0.00000000    0.00000000    0.00000000
     atom    2 type  1   force =     0.00000000    0.00000000    0.00000000
     The Hubbard contrib.    to forces
     atom    1 type  1   force =     0.00000000    0.00000000    0.00000000
     atom    2 type  1   force =     0.00000000    0.00000000    0.00000000
     The SCF correction term to forces
     atom    1 type  1   force =    -0.00001240   -0.00000000   -0.00000000
     atom    2 type  1   force =    -0.00000865   -0.00000000   -0.00000000

     Total force =     0.010622     Total SCF correction =     0.000015
     Energy error            =      3.8E-04 Ry
     Gradient error          =      7.5E-03 Ry/Bohr

     number of scf cycles    =  11
     number of bfgs steps    =   3

     energy             old  =      -2.3178437423 Ry
     energy             new  =      -2.3174633305 Ry

     CASE: energy            _new > energy            _old

     new trust radius        =       0.0020475271 bohr
     new conv_thr            =       0.0000000011 Ry


ATOMIC_POSITIONS (angstrom)
H             0.0344805366        0.0000000000        0.0000000000
H             0.7855194634        0.0000000000        0.0000000000



     Writing config-only to output data dir ./.save/
     NEW-OLD atomic charge density approx. for the potential

     negative rho (up, down):  4.548E-02 0.000E+00

     total cpu time spent up to now is       47.7 secs

     Self-consistent Calculation

     iteration #  1     ecut=    25.00 Ry     beta= 0.70
     Davidson diagonalization with overlap

---- Real-time Memory Report at c_bands before calling an iterative solver
           356 MiB given to the printing process from OS
             0 MiB allocation reported by mallinfo(arena+hblkhd)
           366 MiB available memory on the node where the printing process lives
------------------
     ethr =  1.00E-06,  avg # of iterations =  3.0

     negative rho (up, down):  4.509E-02 0.000E+00

     total cpu time spent up to now is       48.5 secs

     total energy              =      -2.31773830 Ry
     estimated scf accuracy    <       0.00002491 Ry

     iteration #  2     ecut=    25.00 Ry     beta= 0.70
     Davidson diagonalization with overlap

---- Real-time Memory Report at c_bands before calling an iterative solver
           356 MiB given to the printing process from OS
             0 MiB allocation reported by mallinfo(arena+hblkhd)
           243 MiB available memory on the node where the printing process lives
------------------
     ethr =  1.25E-06,  avg # of iterations =  1.0

     negative rho (up, down):  4.500E-02 0.000E+00

     total cpu time spent up to now is       49.3 secs

     total energy              =      -2.31779982 Ry
     estimated scf accuracy    <       0.00000035 Ry

     iteration #  3     ecut=    25.00 Ry     beta= 0.70
     Davidson diagonalization with overlap

---- Real-time Memory Report at c_bands before calling an iterative solver
           356 MiB given to the printing process from OS
             0 MiB allocation reported by mallinfo(arena+hblkhd)
           229 MiB available memory on the node where the printing process lives
------------------
     ethr =  1.74E-08,  avg # of iterations =  2.0

     negative rho (up, down):  4.499E-02 0.000E+00

     total cpu time spent up to now is       50.1 secs

     total energy              =      -2.31780789 Ry
     estimated scf accuracy    <       0.00000002 Ry

     iteration #  4     ecut=    25.00 Ry     beta= 0.70
     Davidson diagonalization with overlap

---- Real-time Memory Report at c_bands before calling an iterative solver
           356 MiB given to the printing process from OS
             0 MiB allocation reported by mallinfo(arena+hblkhd)
           215 MiB available memory on the node where the printing process lives
------------------
     ethr =  1.02E-09,  avg # of iterations =  2.0

     negative rho (up, down):  4.499E-02 0.000E+00

     total cpu time spent up to now is       50.9 secs

     total energy              =      -2.31780617 Ry
     estimated scf accuracy    <          3.0E-09 Ry

     iteration #  5     ecut=    25.00 Ry     beta= 0.70
     Davidson diagonalization with overlap

---- Real-time Memory Report at c_bands before calling an iterative solver
           356 MiB given to the printing process from OS
             0 MiB allocation reported by mallinfo(arena+hblkhd)
           201 MiB available memory on the node where the printing process lives
------------------
     ethr =  1.49E-10,  avg # of iterations =  2.0

     negative rho (up, down):  4.499E-02 0.000E+00

     total cpu time spent up to now is       51.6 secs

     End of self-consistent calculation

          k =-0.5000-0.5000-0.5000 ( 57016 PWs)   bands (ev):

   -10.3795  -1.1282

     occupation numbers 
     1.0000   0.0000

     highest occupied, lowest unoccupied level (ev):   -10.3795   -1.1282

!    total energy              =      -2.31781398 Ry
     estimated scf accuracy    <          7.6E-11 Ry

     The total energy is the sum of the following terms:
     one-electron contribution =      -4.20412420 Ry
     hartree contribution      =       2.23798582 Ry
     xc contribution           =      -1.38286995 Ry
     ewald contribution        =       1.03119436 Ry

     convergence has been achieved in   5 iterations

     Forces acting on atoms (cartesian axes, Ry/au):

     atom    1 type  1   force =     0.00738324    0.00000000    0.00000000
[...]
------------------
     ethr =  1.00E-06,  avg # of iterations =  3.0

     negative rho (up, down):  4.509E-02 0.000E+00

     total cpu time spent up to now is      193.5 secs

     total energy              =      -2.31773830 Ry
     estimated scf accuracy    <       0.00002491 Ry

     iteration #  2     ecut=    25.00 Ry     beta= 0.70
     Davidson diagonalization with overlap

---- Real-time Memory Report at c_bands before calling an iterative solver
           356 MiB given to the printing process from OS
             0 MiB allocation reported by mallinfo(arena+hblkhd)
           243 MiB available memory on the node where the printing process lives
------------------
     ethr =  1.25E-06,  avg # of iterations =  1.0

     negative rho (up, down):  4.500E-02 0.000E+00

     total cpu time spent up to now is      194.3 secs

     total energy              =      -2.31779982 Ry
     estimated scf accuracy    <       0.00000035 Ry

     iteration #  3     ecut=    25.00 Ry     beta= 0.70
     Davidson diagonalization with overlap

---- Real-time Memory Report at c_bands before calling an iterative solver
           356 MiB given to the printing process from OS
             0 MiB allocation reported by mallinfo(arena+hblkhd)
           229 MiB available memory on the node where the printing process lives
------------------
     ethr =  1.74E-08,  avg # of iterations =  2.0

     negative rho (up, down):  4.499E-02 0.000E+00

     total cpu time spent up to now is      195.1 secs

     total energy              =      -2.31780789 Ry
     estimated scf accuracy    <       0.00000002 Ry

     iteration #  4     ecut=    25.00 Ry     beta= 0.70
     Davidson diagonalization with overlap

---- Real-time Memory Report at c_bands before calling an iterative solver
           356 MiB given to the printing process from OS
             0 MiB allocation reported by mallinfo(arena+hblkhd)
           215 MiB available memory on the node where the printing process lives
------------------
     ethr =  1.02E-09,  avg # of iterations =  2.0

     negative rho (up, down):  4.499E-02 0.000E+00

     total cpu time spent up to now is      195.8 secs

     total energy              =      -2.31780617 Ry
     estimated scf accuracy    <          3.0E-09 Ry

     iteration #  5     ecut=    25.00 Ry     beta= 0.70
     Davidson diagonalization with overlap

---- Real-time Memory Report at c_bands before calling an iterative solver
           356 MiB given to the printing process from OS
             0 MiB allocation reported by mallinfo(arena+hblkhd)
           201 MiB available memory on the node where the printing process lives
------------------
     ethr =  1.48E-10,  avg # of iterations =  2.0

     negative rho (up, down):  4.499E-02 0.000E+00

     total cpu time spent up to now is      196.5 secs

     End of self-consistent calculation

          k =-0.5000-0.5000-0.5000 ( 57016 PWs)   bands (ev):

   -10.3795  -1.1282

     occupation numbers 
     1.0000   0.0000

     highest occupied, lowest unoccupied level (ev):   -10.3795   -1.1282

!    total energy              =      -2.31781398 Ry
     estimated scf accuracy    <          7.7E-11 Ry

     The total energy is the sum of the following terms:
     one-electron contribution =      -4.20412420 Ry
     hartree contribution      =       2.23798580 Ry
     xc contribution           =      -1.38286994 Ry
     ewald contribution        =       1.03119436 Ry

     convergence has been achieved in   5 iterations

     Forces acting on atoms (cartesian axes, Ry/au):

     atom    1 type  1   force =     0.00738323    0.00000000    0.00000000
     atom    2 type  1   force =    -0.00738323    0.00000000    0.00000000
     The non-local contrib.  to forces
     atom    1 type  1   force =     0.10823574    0.00000000    0.00000000
     atom    2 type  1   force =    -0.10797451    0.00000000    0.00000000
     The ionic contribution  to forces
     atom    1 type  1   force =    -0.99246096   -0.00000000   -0.00000000
     atom    2 type  1   force =     0.99246096   -0.00000000   -0.00000000
     The local contribution  to forces
     atom    1 type  1   force =     0.89176243    0.00000000    0.00000000
     atom    2 type  1   force =    -0.89169505    0.00000000    0.00000000
     The core correction contribution to forces
     atom    1 type  1   force =     0.00000000    0.00000000    0.00000000
     atom    2 type  1   force =     0.00000000    0.00000000    0.00000000
     The Hubbard contrib.    to forces
     atom    1 type  1   force =     0.00000000    0.00000000    0.00000000
     atom    2 type  1   force =     0.00000000    0.00000000    0.00000000
     The SCF correction term to forces
     atom    1 type  1   force =     0.00004898    0.00000000   -0.00000000
     atom    2 type  1   force =     0.00002833    0.00000000   -0.00000000

     Total force =     0.010441     Total SCF correction =     0.000057
     Energy error            =      3.0E-05 Ry
     Gradient error          =      7.4E-03 Ry/Bohr

     number of scf cycles    =  48
     number of bfgs steps    =   3

     energy             old  =      -2.3178437423 Ry
     energy             new  =      -2.3178139807 Ry

     CASE: energy            _new > energy            _old

     new trust radius        =       0.0006116824 bohr
     new conv_thr            =       0.0000000011 Ry


ATOMIC_POSITIONS (angstrom)
H             0.0337207204        0.0000000000        0.0000000000
H             0.7862792796        0.0000000000        0.0000000000



     Writing config-only to output data dir ./.save/
     NEW-OLD atomic charge density approx. for the potential

     negative rho (up, down):  4.499E-02 0.000E+00

     total cpu time spent up to now is      197.3 secs

     Self-consistent Calculation

     iteration #  1     ecut=    25.00 Ry     beta= 0.70
     Davidson diagonalization with overlap

---- Real-time Memory Report at c_bands before calling an iterative solver
           356 MiB given to the printing process from OS
             0 MiB allocation reported by mallinfo(arena+hblkhd)
           366 MiB available memory on the node where the printing process lives
------------------
     ethr =  1.00E-06,  avg # of iterations =  2.0

     Threshold (ethr) on eigenvalues was too large:
     Diagonalizing with lowered threshold

     Davidson diagonalization with overlap

---- Real-time Memory Report at c_bands before calling an iterative solver
           356 MiB given to the printing process from OS
             0 MiB allocation reported by mallinfo(arena+hblkhd)
           369 MiB available memory on the node where the printing process lives
------------------
     ethr =  2.91E-08,  avg # of iterations =  1.0

     negative rho (up, down):  4.493E-02 0.000E+00

     total cpu time spent up to now is      198.3 secs

     total energy              =      -2.31782066 Ry
     estimated scf accuracy    <       0.00000062 Ry

     iteration #  2     ecut=    25.00 Ry     beta= 0.70
     Davidson diagonalization with overlap

---- Real-time Memory Report at c_bands before calling an iterative solver
           356 MiB given to the printing process from OS
             0 MiB allocation reported by mallinfo(arena+hblkhd)
           243 MiB available memory on the node where the printing process lives
------------------
     ethr =  3.11E-08,  avg # of iterations =  2.0

     negative rho (up, down):  4.491E-02 0.000E+00

     total cpu time spent up to now is      199.1 secs

     total energy              =      -2.31782990 Ry
     estimated scf accuracy    <          9.4E-09 Ry

     iteration #  3     ecut=    25.00 Ry     beta= 0.70
     Davidson diagonalization with overlap

---- Real-time Memory Report at c_bands before calling an iterative solver
           356 MiB given to the printing process from OS
             0 MiB allocation reported by mallinfo(arena+hblkhd)
           229 MiB available memory on the node where the printing process lives
------------------
     ethr =  4.71E-10,  avg # of iterations =  2.0

     negative rho (up, down):  4.491E-02 0.000E+00

     total cpu time spent up to now is      199.8 secs

     End of self-consistent calculation

          k =-0.5000-0.5000-0.5000 ( 57016 PWs)   bands (ev):

   -10.3720  -1.1282

     occupation numbers 
     1.0000   0.0000

     highest occupied, lowest unoccupied level (ev):   -10.3720   -1.1282

!    total energy              =      -2.31783452 Ry
     estimated scf accuracy    <          2.5E-10 Ry

     The total energy is the sum of the following terms:
     one-electron contribution =      -4.20024229 Ry
     hartree contribution      =       2.23596077 Ry
     xc contribution           =      -1.38190308 Ry
     ewald contribution        =       1.02835008 Ry

     convergence has been achieved in   3 iterations

     Forces acting on atoms (cartesian axes, Ry/au):

     atom    1 type  1   force =     0.00978253    0.00000000    0.00000000
     atom    2 type  1   force =    -0.00978253    0.00000000    0.00000000
     The non-local contrib.  to forces
     atom    1 type  1   force =     0.10819106    0.00000000    0.00000000
     atom    2 type  1   force =    -0.10797166    0.00000000    0.00000000
     The ionic contribution  to forces
     atom    1 type  1   force =    -0.98845417    0.00000000   -0.00000000
     atom    2 type  1   force =     0.98845417    0.00000000   -0.00000000
     The local contribution  to forces
     atom    1 type  1   force =     0.89018771    0.00000000    0.00000000
     atom    2 type  1   force =    -0.89013704    0.00000000    0.00000000
     The core correction contribution to forces
     atom    1 type  1   force =     0.00000000    0.00000000    0.00000000
     atom    2 type  1   force =     0.00000000    0.00000000    0.00000000
     The Hubbard contrib.    to forces
     atom    1 type  1   force =     0.00000000    0.00000000    0.00000000
     atom    2 type  1   force =     0.00000000    0.00000000    0.00000000
     The SCF correction term to forces
     atom    1 type  1   force =     0.00004349   -0.00000000   -0.00000000
     atom    2 type  1   force =     0.00005755    0.00000000    0.00000000

     Total force =     0.013835     Total SCF correction =     0.000072
     Energy error            =      9.2E-06 Ry
     Gradient error          =      9.8E-03 Ry/Bohr

     number of scf cycles    =  49
     number of bfgs steps    =   3

     energy             old  =      -2.3178437423 Ry
     energy             new  =      -2.3178345191 Ry

     CASE: energy            _new > energy            _old

     new trust radius        =       0.0001800275 bohr
     new conv_thr            =       0.0000000011 Ry


ATOMIC_POSITIONS (angstrom)
H             0.0334922984        0.0000000000        0.0000000000
H             0.7865077016        0.0000000000        0.0000000000



     Writing config-only to output data dir ./.save/
     NEW-OLD atomic charge density approx. for the potential

     negative rho (up, down):  4.491E-02 0.000E+00

     total cpu time spent up to now is      200.6 secs

     Self-consistent Calculation

     iteration #  1     ecut=    25.00 Ry     beta= 0.70
     Davidson diagonalization with overlap

---- Real-time Memory Report at c_bands before calling an iterative solver
           356 MiB given to the printing process from OS
             0 MiB allocation reported by mallinfo(arena+hblkhd)
           366 MiB available memory on the node where the printing process lives
------------------
     ethr =  1.00E-06,  avg # of iterations =  2.0

     Threshold (ethr) on eigenvalues was too large:
     Diagonalizing with lowered threshold

     Davidson diagonalization with overlap

---- Real-time Memory Report at c_bands before calling an iterative solver
           356 MiB given to the printing process from OS
             0 MiB allocation reported by mallinfo(arena+hblkhd)
           369 MiB available memory on the node where the printing process lives
------------------
     ethr =  2.06E-09,  avg # of iterations =  1.0

     negative rho (up, down):  4.489E-02 0.000E+00

     total cpu time spent up to now is      201.6 secs

     total energy              =      -2.31783500 Ry
     estimated scf accuracy    <       0.00000005 Ry

     iteration #  2     ecut=    25.00 Ry     beta= 0.70
     Davidson diagonalization with overlap

---- Real-time Memory Report at c_bands before calling an iterative solver
           356 MiB given to the printing process from OS
             0 MiB allocation reported by mallinfo(arena+hblkhd)
           243 MiB available memory on the node where the printing process lives
------------------
     ethr =  2.40E-09,  avg # of iterations =  2.0

     negative rho (up, down):  4.489E-02 0.000E+00

     total cpu time spent up to now is      202.4 secs

     total energy              =      -2.31783838 Ry
     estimated scf accuracy    <          1.7E-09 Ry

     iteration #  3     ecut=    25.00 Ry     beta= 0.70
     Davidson diagonalization with overlap

---- Real-time Memory Report at c_bands before calling an iterative solver
           356 MiB given to the printing process from OS
             0 MiB allocation reported by mallinfo(arena+hblkhd)
           229 MiB available memory on the node where the printing process lives
------------------
     ethr =  8.74E-11,  avg # of iterations =  3.0

     negative rho (up, down):  4.488E-02 0.000E+00

     total cpu time spent up to now is      203.1 secs

     End of self-consistent calculation

          k =-0.5000-0.5000-0.5000 ( 57016 PWs)   bands (ev):

   -10.3696  -1.1276

     occupation numbers 
     1.0000   0.0000

     highest occupied, lowest unoccupied level (ev):   -10.3696   -1.1276

!    total energy              =      -2.31784190 Ry
     estimated scf accuracy    <          1.8E-11 Ry

     The total energy is the sum of the following terms:
     one-electron contribution =      -4.19907378 Ry
     hartree contribution      =       2.23534697 Ry
     xc contribution           =      -1.38161234 Ry
     ewald contribution        =       1.02749725 Ry

     convergence has been achieved in   3 iterations

     Forces acting on atoms (cartesian axes, Ry/au):

     atom    1 type  1   force =     0.01058984    0.00000000    0.00000000
     atom    2 type  1   force =    -0.01058984    0.00000000    0.00000000
     The non-local contrib.  to forces
     atom    1 type  1   force =     0.10816108    0.00000000    0.00000000
     atom    2 type  1   force =    -0.10805558    0.00000000    0.00000000
     The ionic contribution  to forces
     atom    1 type  1   force =    -0.98725436   -0.00000000   -0.00000000
     atom    2 type  1   force =     0.98725436   -0.00000000   -0.00000000
     The local contribution  to forces
     atom    1 type  1   force =     0.88971494    0.00000000    0.00000000
     atom    2 type  1   force =    -0.88966288    0.00000000    0.00000000
     The core correction contribution to forces
     atom    1 type  1   force =     0.00000000    0.00000000    0.00000000
     atom    2 type  1   force =     0.00000000    0.00000000    0.00000000
     The Hubbard contrib.    to forces
     atom    1 type  1   force =     0.00000000    0.00000000    0.00000000
     atom    2 type  1   force =     0.00000000    0.00000000    0.00000000
     The SCF correction term to forces
     atom    1 type  1   force =     0.00002765    0.00000000    0.00000000
     atom    2 type  1   force =    -0.00006627    0.00000000    0.00000000

     Total force =     0.014976     Total SCF correction =     0.000072
     Energy error            =      1.8E-06 Ry
     Gradient error          =      1.1E-02 Ry/Bohr

     number of scf cycles    =  50
     number of bfgs steps    =   3

     energy             old  =      -2.3178437423 Ry
     energy             new  =      -2.3178419025 Ry

     CASE: energy            _new > energy            _old

     new trust radius        =       0.0000610828 bohr

     trust_radius < trust_radius_min

     resetting bfgs history


     The maximum number of steps has been reached.

     End of BFGS Geometry Optimization

ATOMIC_POSITIONS (angstrom)
H             0.0391057391        0.0000000000        0.0000000000
H             0.7808942609        0.0000000000        0.0000000000



     Writing config-only to output data dir ./.save/
     NEW-OLD atomic charge density approx. for the potential

     negative rho (up, down):  4.486E-02 0.000E+00

     Writing all to output data dir ./.save/

     init_run     :      0.73s CPU      0.77s WALL (       1 calls)
     electrons    :    162.64s CPU    164.51s WALL (      50 calls)
     update_pot   :     24.61s CPU     25.19s WALL (      50 calls)
     forces       :      9.59s CPU      9.84s WALL (      50 calls)

     Called by init_run:
     wfcinit      :      0.06s CPU      0.06s WALL (       1 calls)
     wfcinit:atom :      0.00s CPU      0.00s WALL (       1 calls)
     wfcinit:wfcr :      0.06s CPU      0.06s WALL (       1 calls)
     potinit      :      0.42s CPU      0.45s WALL (       1 calls)
     hinit0       :      0.04s CPU      0.04s WALL (       1 calls)

     Called by electrons:
     c_bands      :     36.04s CPU     36.09s WALL (     226 calls)
     sum_band     :     23.16s CPU     23.44s WALL (     226 calls)
     v_of_rho     :    105.55s CPU    106.19s WALL (     254 calls)
     v_h          :      6.52s CPU      6.54s WALL (     254 calls)
     v_xc         :     99.02s CPU     99.64s WALL (     254 calls)
     newd         :      8.11s CPU      8.12s WALL (     254 calls)
     mix_rho      :      8.35s CPU      9.27s WALL (     226 calls)

     Called by c_bands:
     init_us_2    :      0.70s CPU      0.71s WALL (     453 calls)
     init_us_2:cp :      0.70s CPU      0.71s WALL (     453 calls)
     cegterg      :     35.57s CPU     35.61s WALL (     226 calls)

     Called by sum_band:
     sum_band:wei :      0.00s CPU      0.00s WALL (     226 calls)
     sum_band:loo :      6.80s CPU      6.81s WALL (     226 calls)
     sum_band:buf :      0.00s CPU      0.00s WALL (     226 calls)
     sum_band:ini :      0.36s CPU      0.36s WALL (     226 calls)
     sum_band:cal :      0.09s CPU      0.09s WALL (     226 calls)
     sum_band:bec :      0.00s CPU      0.00s WALL (     226 calls)
     addusdens    :      2.16s CPU      2.38s WALL (     226 calls)
     addusd:skk   :      0.62s CPU      0.71s WALL (     226 calls)
     addusd:dgemm :      0.43s CPU      0.46s WALL (     226 calls)
     addusd:qvan2 :      0.56s CPU      0.60s WALL (     226 calls)

     Called by *egterg:
     cdiaghg      :      0.01s CPU      0.01s WALL (     640 calls)
     cegterg:over :      0.44s CPU      0.45s WALL (     486 calls)
     cegterg:upda :      0.33s CPU      0.33s WALL (     486 calls)
     cegterg:last :      0.64s CPU      0.65s WALL (     453 calls)
     h_psi        :     33.38s CPU     33.41s WALL (     713 calls)
     s_psi        :      0.20s CPU      0.20s WALL (     713 calls)
     g_psi        :      0.14s CPU      0.15s WALL (     486 calls)

     Called by h_psi:
     h_psi:calbec :      0.26s CPU      0.26s WALL (     713 calls)
     vloc_psi     :     32.76s CPU     32.80s WALL (     713 calls)
     add_vuspsi   :      0.21s CPU      0.21s WALL (     713 calls)

     General routines
     calbec       :      0.42s CPU      0.42s WALL (    1139 calls)
     fft          :     58.22s CPU     58.27s WALL (    2967 calls)
     ffts         :      4.63s CPU      4.63s WALL (     226 calls)
     fftw         :     34.87s CPU     34.90s WALL (    2852 calls)


     PWSCF        :   3m21.20s CPU   3m23.95s WALL


   This run was terminated on:   4: 0:10  28Feb2022            

=------------------------------------------------------------------------------=
   JOB DONE.
=------------------------------------------------------------------------------=
