
     Program PWSCF v.7.0 starts on 28Feb2022 at 22:14:43 

     This program is part of the open-source Quantum ESPRESSO suite
     for quantum simulation of materials; please cite
         "P. Giannozzi et al., J. Phys.:Condens. Matter 21 395502 (2009);
         "P. Giannozzi et al., J. Phys.:Condens. Matter 29 465901 (2017);
         "P. Giannozzi et al., J. Chem. Phys. 152 154105 (2020);
          URL http://www.quantum-espresso.org", 
     in publications or presentations arising from this work. More details at
     http://www.quantum-espresso.org/quote

     Serial version
     1309 MiB available memory on the printing compute node when the environment starts

     Waiting for input...
     Reading input from standard input

     Current dimensions of program PWSCF are:
     Max number of different atomic species (ntypx) = 10
     Max number of k-points (npk) =  40000
     Max angular momentum in pseudopotentials (lmaxx) =  4

    ============================================================
    |  pseudopotential report for atomic species:  1           |
    |        pseudo potential version   7   3   2              |
    ------------------------------------------------------------
    |  hydrogen            PBE                  exchange-corr  |
    |  z =   1.    zv( 1) =   1.    exfact =   5.00000         |
    |  ifpcor =  0           atomic energy =  -0.91772 Ry      |
    |  index    orbital      occupation    energy              |
    |    1        100           1.00       -0.48               |
    |  rinner =  0.5000                                        |
    |    new generation scheme:                                |
    |    nbeta =  1     kkbeta =  271     rcloc =    0.6000    |
    |    ibeta    l     epsilon   rcut                         |
    |      1       0      -0.48   0.80                         |
    ============================================================

     IMPORTANT: XC functional enforced from input :
     Exchange-correlation= BLYP
                           (   1   3   1   3   0   0   0)
     Any further DFT definition will be discarded
     Please, verify this is what you really want


     G-vector sticks info
     --------------------
     sticks:   dense  smooth     PW     G-vecs:    dense   smooth      PW
     Sum        1433    1433    421                40651    40651    6451

     Using Slab Decomposition



     bravais-lattice index     =            1
     lattice parameter (alat)  =      30.0000  a.u.
     unit-cell volume          =   27000.0000 (a.u.)^3
     number of atoms/cell      =            2
     number of atomic types    =            1
     number of electrons       =         2.00
     number of Kohn-Sham states=            2
     kinetic-energy cutoff     =       5.0000  Ry
     charge density cutoff     =      20.0000  Ry
     scf convergence threshold =      1.0E-08
     mixing beta               =       0.7000
     number of iterations used =            8  plain     mixing
     Exchange-correlation= BLYP
                           (   1   3   1   3   0   0   0)

     celldm(1)=  30.000000  celldm(2)=   0.000000  celldm(3)=   0.000000
     celldm(4)=   0.000000  celldm(5)=   0.000000  celldm(6)=   0.000000

     crystal axes: (cart. coord. in units of alat)
               a(1) = (   1.000000   0.000000   0.000000 )  
               a(2) = (   0.000000   1.000000   0.000000 )  
               a(3) = (   0.000000   0.000000   1.000000 )  

     reciprocal axes: (cart. coord. in units 2 pi/alat)
               b(1) = (  1.000000  0.000000  0.000000 )  
               b(2) = (  0.000000  1.000000  0.000000 )  
               b(3) = (  0.000000  0.000000  1.000000 )  


     PseudoPot. # 1 for hy read from file:
     /root/q-e/pseudo/H_US.van
     MD5 check sum: a9a9bfe98ff56cf4de197d71fc46bb44
     Pseudo is Ultrasoft, Zval =  1.0
     Generated by Vanderbilt code, v. 7.3.2
     Using radial grid of  399 points,  1 beta functions with: 
                l(1) =   0
     Q(r) pseudized with  8 coefficients,  rinner =    0.500

     atomic species   valence    mass     pseudopotential
        H              1.00     1.00784     hy( 1.00)

      8 Sym. Ops. (no inversion) found


                                    s                        frac. trans.

      isym =  1     identity                                     

 cryst.   s( 1) = (     1          0          0      )
                  (     0          1          0      )
                  (     0          0          1      )

 cart.    s( 1) = (  1.0000000  0.0000000  0.0000000 )
                  (  0.0000000  1.0000000  0.0000000 )
                  (  0.0000000  0.0000000  1.0000000 )


      isym =  2     180 deg rotation - cart. axis [1,0,0]        

 cryst.   s( 2) = (     1          0          0      )
                  (     0         -1          0      )
                  (     0          0         -1      )

 cart.    s( 2) = (  1.0000000  0.0000000  0.0000000 )
                  (  0.0000000 -1.0000000  0.0000000 )
                  (  0.0000000  0.0000000 -1.0000000 )


      isym =  3      90 deg rotation - cart. axis [-1,0,0]       

 cryst.   s( 3) = (     1          0          0      )
                  (     0          0         -1      )
                  (     0          1          0      )

 cart.    s( 3) = (  1.0000000  0.0000000  0.0000000 )
                  (  0.0000000  0.0000000  1.0000000 )
                  (  0.0000000 -1.0000000  0.0000000 )


      isym =  4      90 deg rotation - cart. axis [1,0,0]        

 cryst.   s( 4) = (     1          0          0      )
                  (     0          0          1      )
                  (     0         -1          0      )

 cart.    s( 4) = (  1.0000000  0.0000000  0.0000000 )
                  (  0.0000000  0.0000000 -1.0000000 )
                  (  0.0000000  1.0000000  0.0000000 )


      isym =  5     inv. 180 deg rotation - cart. axis [0,0,1]   

 cryst.   s( 5) = (     1          0          0      )
                  (     0          1          0      )
                  (     0          0         -1      )

 cart.    s( 5) = (  1.0000000  0.0000000  0.0000000 )
                  (  0.0000000  1.0000000  0.0000000 )
                  (  0.0000000  0.0000000 -1.0000000 )


      isym =  6     inv. 180 deg rotation - cart. axis [0,1,0]   

 cryst.   s( 6) = (     1          0          0      )
                  (     0         -1          0      )
                  (     0          0          1      )

 cart.    s( 6) = (  1.0000000  0.0000000  0.0000000 )
                  (  0.0000000 -1.0000000  0.0000000 )
                  (  0.0000000  0.0000000  1.0000000 )


      isym =  7     inv. 180 deg rotation - cart. axis [0,1,1]   

 cryst.   s( 7) = (     1          0          0      )
                  (     0          0         -1      )
                  (     0         -1          0      )

 cart.    s( 7) = (  1.0000000  0.0000000  0.0000000 )
                  (  0.0000000  0.0000000 -1.0000000 )
                  (  0.0000000 -1.0000000  0.0000000 )


      isym =  8     inv. 180 deg rotation - cart. axis [0,1,-1]  

 cryst.   s( 8) = (     1          0          0      )
                  (     0          0          1      )
                  (     0          1          0      )

 cart.    s( 8) = (  1.0000000  0.0000000  0.0000000 )
                  (  0.0000000  0.0000000  1.0000000 )
                  (  0.0000000  1.0000000  0.0000000 )


     point group C_4v (4mm) 
     there are  5 classes
     the character table:

       E     2C4   C2    2s_v  2s_d 
A_1    1.00  1.00  1.00  1.00  1.00
A_2    1.00  1.00  1.00 -1.00 -1.00
B_1    1.00 -1.00  1.00  1.00 -1.00
B_2    1.00 -1.00  1.00 -1.00  1.00
E      2.00  0.00 -2.00  0.00  0.00

     the symmetry operations in each class and the name of the first element:

     E        1
          identity                                               
     2C4      3    4
           90 deg rotation - cart. axis [-1,0,0]                 
     C2       2
          180 deg rotation - cart. axis [1,0,0]                  
     2s_v     5    6
          inv. 180 deg rotation - cart. axis [0,0,1]             
     2s_d     7    8
          inv. 180 deg rotation - cart. axis [0,1,1]             

   Cartesian axes

     site n.     atom                  positions (alat units)
         1           H   tau(   1) = (   0.0000000   0.0000000   0.0000000  )
         2           H   tau(   2) = (   0.1574772   0.0000000   0.0000000  )

   Crystallographic axes

     site n.     atom                  positions (cryst. coord.)
         1           H   tau(   1) = (  0.0000000  0.0000000  0.0000000  )
         2           H   tau(   2) = (  0.1574772  0.0000000  0.0000000  )

     number of k points=     1
                       cart. coord. in units 2pi/alat
        k(    1) = (  -0.5000000  -0.5000000  -0.5000000), wk =   2.0000000

                       cryst. coord.
        k(    1) = (  -0.5000000  -0.5000000  -0.5000000), wk =   2.0000000

     Dense  grid:    40651 G-vectors     FFT dimensions: (  45,  45,  45)

     Dynamical RAM for                 wfc:       0.16 MB

     Dynamical RAM for     wfc (w. buffer):       0.16 MB

     Dynamical RAM for           str. fact:       0.62 MB

     Dynamical RAM for           local pot:       0.00 MB

     Dynamical RAM for          nlocal pot:       0.16 MB

     Dynamical RAM for                qrad:       0.00 MB

     Dynamical RAM for          rho,v,vnew:       3.95 MB

     Dynamical RAM for               rhoin:       1.32 MB

     Dynamical RAM for            rho*nmix:       9.92 MB

     Dynamical RAM for           G-vectors:       2.64 MB

     Dynamical RAM for          h,s,v(r/c):       0.00 MB

     Dynamical RAM for          <psi|beta>:       0.00 MB

     Dynamical RAM for                 psi:       0.31 MB

     Dynamical RAM for                hpsi:       0.31 MB

     Dynamical RAM for                spsi:       0.31 MB

     Dynamical RAM for      wfcinit/wfcrot:       0.31 MB

     Dynamical RAM for           addusdens:       3.72 MB

     Estimated static dynamical RAM per process >      13.55 MB

     Estimated max dynamical RAM per process >      27.20 MB

     Initial potential from superposition of free atoms

     starting charge       2.0000, renormalised to       2.0000

     negative rho (up, down):  5.449E-01 0.000E+00
     Starting wfcs are    2 randomized atomic wfcs

     total cpu time spent up to now is        0.1 secs

     Self-consistent Calculation

     iteration #  1     ecut=     5.00 Ry     beta= 0.70
     Davidson diagonalization with overlap

---- Real-time Memory Report at c_bands before calling an iterative solver
            37 MiB given to the printing process from OS
             0 MiB allocation reported by mallinfo(arena+hblkhd)
          1291 MiB available memory on the node where the printing process lives
------------------
     ethr =  1.00E-02,  avg # of iterations =  1.0

     negative rho (up, down):  2.806E-01 0.000E+00

     total cpu time spent up to now is        0.2 secs

     total energy              =      -1.71876731 Ry
     estimated scf accuracy    <       0.02342866 Ry

     iteration #  2     ecut=     5.00 Ry     beta= 0.70
     Davidson diagonalization with overlap

---- Real-time Memory Report at c_bands before calling an iterative solver
            44 MiB given to the printing process from OS
             0 MiB allocation reported by mallinfo(arena+hblkhd)
          1278 MiB available memory on the node where the printing process lives
------------------
     ethr =  1.17E-03,  avg # of iterations =  1.0

     negative rho (up, down):  1.864E-01 0.000E+00

     total cpu time spent up to now is        0.2 secs

     total energy              =      -1.75636325 Ry
     estimated scf accuracy    <       0.00259644 Ry

     iteration #  3     ecut=     5.00 Ry     beta= 0.70
     Davidson diagonalization with overlap

---- Real-time Memory Report at c_bands before calling an iterative solver
            45 MiB given to the printing process from OS
             0 MiB allocation reported by mallinfo(arena+hblkhd)
          1276 MiB available memory on the node where the printing process lives
------------------
     ethr =  1.30E-04,  avg # of iterations =  2.0

     negative rho (up, down):  1.801E-01 0.000E+00

     total cpu time spent up to now is        0.3 secs

     total energy              =      -1.75705578 Ry
     estimated scf accuracy    <       0.04406595 Ry

     iteration #  4     ecut=     5.00 Ry     beta= 0.70
     Davidson diagonalization with overlap

---- Real-time Memory Report at c_bands before calling an iterative solver
            46 MiB given to the printing process from OS
             0 MiB allocation reported by mallinfo(arena+hblkhd)
          1275 MiB available memory on the node where the printing process lives
------------------
     ethr =  1.30E-04,  avg # of iterations =  1.0

     negative rho (up, down):  1.802E-01 0.000E+00

     total cpu time spent up to now is        0.4 secs

     total energy              =      -1.75977043 Ry
     estimated scf accuracy    <       0.00003256 Ry

     iteration #  5     ecut=     5.00 Ry     beta= 0.70
     Davidson diagonalization with overlap

---- Real-time Memory Report at c_bands before calling an iterative solver
            48 MiB given to the printing process from OS
             0 MiB allocation reported by mallinfo(arena+hblkhd)
          1274 MiB available memory on the node where the printing process lives
------------------
     ethr =  1.63E-06,  avg # of iterations =  1.0

     negative rho (up, down):  1.805E-01 0.000E+00

     total cpu time spent up to now is        0.4 secs

     total energy              =      -1.75967566 Ry
     estimated scf accuracy    <       0.00003010 Ry

     iteration #  6     ecut=     5.00 Ry     beta= 0.70
     Davidson diagonalization with overlap

---- Real-time Memory Report at c_bands before calling an iterative solver
            49 MiB given to the printing process from OS
             0 MiB allocation reported by mallinfo(arena+hblkhd)
          1273 MiB available memory on the node where the printing process lives
------------------
     ethr =  1.51E-06,  avg # of iterations =  1.0

     negative rho (up, down):  1.807E-01 0.000E+00

     total cpu time spent up to now is        0.5 secs

     total energy              =      -1.75973036 Ry
     estimated scf accuracy    <       0.00002011 Ry

     iteration #  7     ecut=     5.00 Ry     beta= 0.70
     Davidson diagonalization with overlap

---- Real-time Memory Report at c_bands before calling an iterative solver
            50 MiB given to the printing process from OS
             0 MiB allocation reported by mallinfo(arena+hblkhd)
          1271 MiB available memory on the node where the printing process lives
------------------
     ethr =  1.01E-06,  avg # of iterations =  2.0

     negative rho (up, down):  1.806E-01 0.000E+00

     total cpu time spent up to now is        0.6 secs

     total energy              =      -1.75976329 Ry
     estimated scf accuracy    <       0.00002808 Ry

     iteration #  8     ecut=     5.00 Ry     beta= 0.70
     Davidson diagonalization with overlap

---- Real-time Memory Report at c_bands before calling an iterative solver
            51 MiB given to the printing process from OS
             0 MiB allocation reported by mallinfo(arena+hblkhd)
          1270 MiB available memory on the node where the printing process lives
------------------
     ethr =  1.01E-06,  avg # of iterations =  1.0

     negative rho (up, down):  1.808E-01 0.000E+00

     total cpu time spent up to now is        0.6 secs

     total energy              =      -1.75969224 Ry
     estimated scf accuracy    <       0.00001998 Ry

     iteration #  9     ecut=     5.00 Ry     beta= 0.70
     Davidson diagonalization with overlap

---- Real-time Memory Report at c_bands before calling an iterative solver
            53 MiB given to the printing process from OS
             0 MiB allocation reported by mallinfo(arena+hblkhd)
          1269 MiB available memory on the node where the printing process lives
------------------
     ethr =  9.99E-07,  avg # of iterations =  1.0

     negative rho (up, down):  1.794E-01 0.000E+00

     total cpu time spent up to now is        0.7 secs

     total energy              =      -1.76012447 Ry
     estimated scf accuracy    <       0.00002688 Ry

     iteration # 10     ecut=     5.00 Ry     beta= 0.70
     Davidson diagonalization with overlap

---- Real-time Memory Report at c_bands before calling an iterative solver
            54 MiB given to the printing process from OS
             0 MiB allocation reported by mallinfo(arena+hblkhd)
          1268 MiB available memory on the node where the printing process lives
------------------
     ethr =  9.99E-07,  avg # of iterations =  2.0

     negative rho (up, down):  1.793E-01 0.000E+00

     total cpu time spent up to now is        0.8 secs

     total energy              =      -1.76013394 Ry
     estimated scf accuracy    <       0.00000473 Ry

     iteration # 11     ecut=     5.00 Ry     beta= 0.70
     Davidson diagonalization with overlap

---- Real-time Memory Report at c_bands before calling an iterative solver
            54 MiB given to the printing process from OS
             0 MiB allocation reported by mallinfo(arena+hblkhd)
          1268 MiB available memory on the node where the printing process lives
------------------
     ethr =  2.37E-07,  avg # of iterations =  1.0

     negative rho (up, down):  1.793E-01 0.000E+00

     total cpu time spent up to now is        0.8 secs

     total energy              =      -1.76017782 Ry
     estimated scf accuracy    <       0.00000216 Ry

     iteration # 12     ecut=     5.00 Ry     beta= 0.70
     Davidson diagonalization with overlap

---- Real-time Memory Report at c_bands before calling an iterative solver
            54 MiB given to the printing process from OS
             0 MiB allocation reported by mallinfo(arena+hblkhd)
          1268 MiB available memory on the node where the printing process lives
------------------
     ethr =  1.08E-07,  avg # of iterations =  2.0

     negative rho (up, down):  1.793E-01 0.000E+00

     total cpu time spent up to now is        0.9 secs

     total energy              =      -1.76012517 Ry
     estimated scf accuracy    <       0.00001219 Ry

     iteration # 13     ecut=     5.00 Ry     beta= 0.70
     Davidson diagonalization with overlap

---- Real-time Memory Report at c_bands before calling an iterative solver
            54 MiB given to the printing process from OS
             0 MiB allocation reported by mallinfo(arena+hblkhd)
          1268 MiB available memory on the node where the printing process lives
------------------
     ethr =  1.08E-07,  avg # of iterations =  2.0

     negative rho (up, down):  1.792E-01 0.000E+00

     total cpu time spent up to now is        1.0 secs

     total energy              =      -1.76024561 Ry
     estimated scf accuracy    <       0.00000067 Ry

     iteration # 14     ecut=     5.00 Ry     beta= 0.70
     Davidson diagonalization with overlap

---- Real-time Memory Report at c_bands before calling an iterative solver
            54 MiB given to the printing process from OS
             0 MiB allocation reported by mallinfo(arena+hblkhd)
          1268 MiB available memory on the node where the printing process lives
------------------
     ethr =  3.37E-08,  avg # of iterations =  2.0

     negative rho (up, down):  1.792E-01 0.000E+00

     total cpu time spent up to now is        1.0 secs

     total energy              =      -1.76022637 Ry
     estimated scf accuracy    <       0.00002422 Ry

     iteration # 15     ecut=     5.00 Ry     beta= 0.70
     Davidson diagonalization with overlap

---- Real-time Memory Report at c_bands before calling an iterative solver
            54 MiB given to the printing process from OS
             0 MiB allocation reported by mallinfo(arena+hblkhd)
          1268 MiB available memory on the node where the printing process lives
------------------
     ethr =  3.37E-08,  avg # of iterations =  2.0

     negative rho (up, down):  1.793E-01 0.000E+00

     total cpu time spent up to now is        1.1 secs

     total energy              =      -1.76023568 Ry
     estimated scf accuracy    <       0.00000950 Ry

     iteration # 16     ecut=     5.00 Ry     beta= 0.70
     Davidson diagonalization with overlap

---- Real-time Memory Report at c_bands before calling an iterative solver
            54 MiB given to the printing process from OS
             0 MiB allocation reported by mallinfo(arena+hblkhd)
          1268 MiB available memory on the node where the printing process lives
------------------
     ethr =  3.37E-08,  avg # of iterations =  3.0

     negative rho (up, down):  1.793E-01 0.000E+00

     total cpu time spent up to now is        1.2 secs

     total energy              =      -1.76018581 Ry
     estimated scf accuracy    <       0.00000009 Ry

     iteration # 17     ecut=     5.00 Ry     beta= 0.70
     Davidson diagonalization with overlap

---- Real-time Memory Report at c_bands before calling an iterative solver
            54 MiB given to the printing process from OS
             0 MiB allocation reported by mallinfo(arena+hblkhd)
          1268 MiB available memory on the node where the printing process lives
------------------
     ethr =  4.38E-09,  avg # of iterations =  4.0

     negative rho (up, down):  1.793E-01 0.000E+00

     total cpu time spent up to now is        1.3 secs

     total energy              =      -1.76020178 Ry
     estimated scf accuracy    <       0.00000131 Ry

     iteration # 18     ecut=     5.00 Ry     beta= 0.70
     Davidson diagonalization with overlap

---- Real-time Memory Report at c_bands before calling an iterative solver
            54 MiB given to the printing process from OS
             0 MiB allocation reported by mallinfo(arena+hblkhd)
          1268 MiB available memory on the node where the printing process lives
------------------
     ethr =  4.38E-09,  avg # of iterations =  3.0

     negative rho (up, down):  1.793E-01 0.000E+00

     total cpu time spent up to now is        1.3 secs

     total energy              =      -1.76021767 Ry
     estimated scf accuracy    <       0.00000882 Ry

     iteration # 19     ecut=     5.00 Ry     beta= 0.70
     Davidson diagonalization with overlap

---- Real-time Memory Report at c_bands before calling an iterative solver
            54 MiB given to the printing process from OS
             0 MiB allocation reported by mallinfo(arena+hblkhd)
          1268 MiB available memory on the node where the printing process lives
------------------
     ethr =  4.38E-09,  avg # of iterations =  3.0

     negative rho (up, down):  1.793E-01 0.000E+00

     total cpu time spent up to now is        1.4 secs

     total energy              =      -1.76018098 Ry
     estimated scf accuracy    <       0.00001034 Ry

     iteration # 20     ecut=     5.00 Ry     beta= 0.70
     Davidson diagonalization with overlap

---- Real-time Memory Report at c_bands before calling an iterative solver
            54 MiB given to the printing process from OS
             0 MiB allocation reported by mallinfo(arena+hblkhd)
          1268 MiB available memory on the node where the printing process lives
------------------
     ethr =  4.38E-09,  avg # of iterations =  4.0

     negative rho (up, down):  1.793E-01 0.000E+00

     total cpu time spent up to now is        1.5 secs

     total energy              =      -1.76017111 Ry
     estimated scf accuracy    <       0.00000064 Ry

     iteration # 21     ecut=     5.00 Ry     beta= 0.70
     Davidson diagonalization with overlap

---- Real-time Memory Report at c_bands before calling an iterative solver
            54 MiB given to the printing process from OS
             0 MiB allocation reported by mallinfo(arena+hblkhd)
          1268 MiB available memory on the node where the printing process lives
------------------
     ethr =  4.38E-09,  avg # of iterations =  3.0

     negative rho (up, down):  1.793E-01 0.000E+00

     total cpu time spent up to now is        1.6 secs

     total energy              =      -1.76019695 Ry
     estimated scf accuracy    <       0.00000073 Ry

     iteration # 22     ecut=     5.00 Ry     beta= 0.70
     Davidson diagonalization with overlap

---- Real-time Memory Report at c_bands before calling an iterative solver
            54 MiB given to the printing process from OS
             0 MiB allocation reported by mallinfo(arena+hblkhd)
          1268 MiB available memory on the node where the printing process lives
------------------
     ethr =  4.38E-09,  avg # of iterations =  2.0

     negative rho (up, down):  1.792E-01 0.000E+00

     total cpu time spent up to now is        1.6 secs

     total energy              =      -1.76020922 Ry
     estimated scf accuracy    <       0.00000090 Ry

     iteration # 23     ecut=     5.00 Ry     beta= 0.70
     Davidson diagonalization with overlap

---- Real-time Memory Report at c_bands before calling an iterative solver
            54 MiB given to the printing process from OS
             0 MiB allocation reported by mallinfo(arena+hblkhd)
          1268 MiB available memory on the node where the printing process lives
------------------
     ethr =  4.38E-09,  avg # of iterations =  3.0

     negative rho (up, down):  1.792E-01 0.000E+00

     total cpu time spent up to now is        1.7 secs

     total energy              =      -1.76020270 Ry
     estimated scf accuracy    <       0.00000107 Ry

     iteration # 24     ecut=     5.00 Ry     beta= 0.70
     Davidson diagonalization with overlap

---- Real-time Memory Report at c_bands before calling an iterative solver
            54 MiB given to the printing process from OS
             0 MiB allocation reported by mallinfo(arena+hblkhd)
          1268 MiB available memory on the node where the printing process lives
------------------
     ethr =  4.38E-09,  avg # of iterations =  3.0

     negative rho (up, down):  1.792E-01 0.000E+00

     total cpu time spent up to now is        1.8 secs

     total energy              =      -1.76019160 Ry
     estimated scf accuracy    <       0.00000011 Ry

     iteration # 25     ecut=     5.00 Ry     beta= 0.70
     Davidson diagonalization with overlap

---- Real-time Memory Report at c_bands before calling an iterative solver
            54 MiB given to the printing process from OS
             0 MiB allocation reported by mallinfo(arena+hblkhd)
          1268 MiB available memory on the node where the printing process lives
------------------
     ethr =  4.38E-09,  avg # of iterations =  2.0

     negative rho (up, down):  1.792E-01 0.000E+00

     total cpu time spent up to now is        1.9 secs

     total energy              =      -1.76019685 Ry
     estimated scf accuracy    <       0.00000001 Ry

     iteration # 26     ecut=     5.00 Ry     beta= 0.70
     Davidson diagonalization with overlap

---- Real-time Memory Report at c_bands before calling an iterative solver
            54 MiB given to the printing process from OS
             0 MiB allocation reported by mallinfo(arena+hblkhd)
          1268 MiB available memory on the node where the printing process lives
------------------
     ethr =  6.65E-10,  avg # of iterations =  2.0

     negative rho (up, down):  1.792E-01 0.000E+00

     total cpu time spent up to now is        1.9 secs

     total energy              =      -1.76021938 Ry
     estimated scf accuracy    <       0.00000028 Ry

     iteration # 27     ecut=     5.00 Ry     beta= 0.70
     Davidson diagonalization with overlap

---- Real-time Memory Report at c_bands before calling an iterative solver
            54 MiB given to the printing process from OS
             0 MiB allocation reported by mallinfo(arena+hblkhd)
          1268 MiB available memory on the node where the printing process lives
------------------
     ethr =  6.65E-10,  avg # of iterations =  4.0

     negative rho (up, down):  1.792E-01 0.000E+00

     total cpu time spent up to now is        2.0 secs

     total energy              =      -1.76021917 Ry
     estimated scf accuracy    <       0.00000061 Ry

     iteration # 28     ecut=     5.00 Ry     beta= 0.70
     Davidson diagonalization with overlap

---- Real-time Memory Report at c_bands before calling an iterative solver
            54 MiB given to the printing process from OS
             0 MiB allocation reported by mallinfo(arena+hblkhd)
          1268 MiB available memory on the node where the printing process lives
------------------
     ethr =  6.65E-10,  avg # of iterations =  2.0

     negative rho (up, down):  1.792E-01 0.000E+00

     total cpu time spent up to now is        2.1 secs

     total energy              =      -1.76019623 Ry
     estimated scf accuracy    <       0.00000046 Ry

     iteration # 29     ecut=     5.00 Ry     beta= 0.70
     Davidson diagonalization with overlap

---- Real-time Memory Report at c_bands before calling an iterative solver
            54 MiB given to the printing process from OS
             0 MiB allocation reported by mallinfo(arena+hblkhd)
          1268 MiB available memory on the node where the printing process lives
------------------
     ethr =  6.65E-10,  avg # of iterations =  4.0

     negative rho (up, down):  1.792E-01 0.000E+00

     total cpu time spent up to now is        2.2 secs

     total energy              =      -1.76019678 Ry
     estimated scf accuracy    <       0.00000021 Ry

     iteration # 30     ecut=     5.00 Ry     beta= 0.70
     Davidson diagonalization with overlap

---- Real-time Memory Report at c_bands before calling an iterative solver
            54 MiB given to the printing process from OS
             0 MiB allocation reported by mallinfo(arena+hblkhd)
          1268 MiB available memory on the node where the printing process lives
------------------
     ethr =  6.65E-10,  avg # of iterations =  1.0

     negative rho (up, down):  1.792E-01 0.000E+00

     total cpu time spent up to now is        2.2 secs

     total energy              =      -1.76019758 Ry
     estimated scf accuracy    <       0.00000014 Ry

     iteration # 31     ecut=     5.00 Ry     beta= 0.70
     Davidson diagonalization with overlap

---- Real-time Memory Report at c_bands before calling an iterative solver
            54 MiB given to the printing process from OS
             0 MiB allocation reported by mallinfo(arena+hblkhd)
          1268 MiB available memory on the node where the printing process lives
------------------
     ethr =  6.65E-10,  avg # of iterations =  2.0

     negative rho (up, down):  1.792E-01 0.000E+00

     total cpu time spent up to now is        2.3 secs

     total energy              =      -1.76021187 Ry
     estimated scf accuracy    <       0.00000006 Ry

     iteration # 32     ecut=     5.00 Ry     beta= 0.70
     Davidson diagonalization with overlap

---- Real-time Memory Report at c_bands before calling an iterative solver
            54 MiB given to the printing process from OS
             0 MiB allocation reported by mallinfo(arena+hblkhd)
          1268 MiB available memory on the node where the printing process lives
------------------
     ethr =  6.65E-10,  avg # of iterations =  4.0

     negative rho (up, down):  1.792E-01 0.000E+00

     total cpu time spent up to now is        2.4 secs

     total energy              =      -1.76025984 Ry
     estimated scf accuracy    <       0.00000203 Ry

     iteration # 33     ecut=     5.00 Ry     beta= 0.70
     Davidson diagonalization with overlap

---- Real-time Memory Report at c_bands before calling an iterative solver
            54 MiB given to the printing process from OS
             0 MiB allocation reported by mallinfo(arena+hblkhd)
          1268 MiB available memory on the node where the printing process lives
------------------
     ethr =  6.65E-10,  avg # of iterations =  4.0

     negative rho (up, down):  1.792E-01 0.000E+00

     total cpu time spent up to now is        2.5 secs

     total energy              =      -1.76023082 Ry
     estimated scf accuracy    <       0.00000010 Ry

     iteration # 34     ecut=     5.00 Ry     beta= 0.70
     Davidson diagonalization with overlap

---- Real-time Memory Report at c_bands before calling an iterative solver
            54 MiB given to the printing process from OS
             0 MiB allocation reported by mallinfo(arena+hblkhd)
          1268 MiB available memory on the node where the printing process lives
------------------
     ethr =  6.65E-10,  avg # of iterations =  4.0

     negative rho (up, down):  1.792E-01 0.000E+00

     total cpu time spent up to now is        2.5 secs

     total energy              =      -1.76022403 Ry
     estimated scf accuracy    <       0.00000030 Ry

     iteration # 35     ecut=     5.00 Ry     beta= 0.70
     Davidson diagonalization with overlap

---- Real-time Memory Report at c_bands before calling an iterative solver
            54 MiB given to the printing process from OS
             0 MiB allocation reported by mallinfo(arena+hblkhd)
          1268 MiB available memory on the node where the printing process lives
------------------
     ethr =  6.65E-10,  avg # of iterations =  2.0

     negative rho (up, down):  1.792E-01 0.000E+00

     total cpu time spent up to now is        2.6 secs

     total energy              =      -1.76022230 Ry
     estimated scf accuracy    <       0.00000003 Ry

     iteration # 36     ecut=     5.00 Ry     beta= 0.70
     Davidson diagonalization with overlap

---- Real-time Memory Report at c_bands before calling an iterative solver
            54 MiB given to the printing process from OS
             0 MiB allocation reported by mallinfo(arena+hblkhd)
          1268 MiB available memory on the node where the printing process lives
------------------
     ethr =  6.65E-10,  avg # of iterations =  2.0

     negative rho (up, down):  1.792E-01 0.000E+00

     total cpu time spent up to now is        2.7 secs

     total energy              =      -1.76022725 Ry
     estimated scf accuracy    <       0.00000027 Ry

     iteration # 37     ecut=     5.00 Ry     beta= 0.70
     Davidson diagonalization with overlap

---- Real-time Memory Report at c_bands before calling an iterative solver
            54 MiB given to the printing process from OS
             0 MiB allocation reported by mallinfo(arena+hblkhd)
          1268 MiB available memory on the node where the printing process lives
------------------
     ethr =  6.65E-10,  avg # of iterations =  2.0

     negative rho (up, down):  1.793E-01 0.000E+00

     total cpu time spent up to now is        2.7 secs

     total energy              =      -1.76019879 Ry
     estimated scf accuracy    <       0.00000026 Ry

     iteration # 38     ecut=     5.00 Ry     beta= 0.70
     Davidson diagonalization with overlap

---- Real-time Memory Report at c_bands before calling an iterative solver
            54 MiB given to the printing process from OS
             0 MiB allocation reported by mallinfo(arena+hblkhd)
          1268 MiB available memory on the node where the printing process lives
------------------
     ethr =  6.65E-10,  avg # of iterations =  4.0

     negative rho (up, down):  1.792E-01 0.000E+00

     total cpu time spent up to now is        2.8 secs

     total energy              =      -1.76021516 Ry
     estimated scf accuracy    <       0.00000011 Ry

     iteration # 39     ecut=     5.00 Ry     beta= 0.70
     Davidson diagonalization with overlap

---- Real-time Memory Report at c_bands before calling an iterative solver
            54 MiB given to the printing process from OS
             0 MiB allocation reported by mallinfo(arena+hblkhd)
          1268 MiB available memory on the node where the printing process lives
------------------
     ethr =  6.65E-10,  avg # of iterations =  4.0

     negative rho (up, down):  1.792E-01 0.000E+00

     total cpu time spent up to now is        2.9 secs

     total energy              =      -1.76021653 Ry
     estimated scf accuracy    <       0.00000025 Ry

     iteration # 40     ecut=     5.00 Ry     beta= 0.70
     Davidson diagonalization with overlap

---- Real-time Memory Report at c_bands before calling an iterative solver
            54 MiB given to the printing process from OS
             0 MiB allocation reported by mallinfo(arena+hblkhd)
          1268 MiB available memory on the node where the printing process lives
------------------
     ethr =  6.65E-10,  avg # of iterations =  1.0

     negative rho (up, down):  1.792E-01 0.000E+00

     total cpu time spent up to now is        3.0 secs

     total energy              =      -1.76021678 Ry
     estimated scf accuracy    <       0.00000034 Ry

     iteration # 41     ecut=     5.00 Ry     beta= 0.70
     Davidson diagonalization with overlap

---- Real-time Memory Report at c_bands before calling an iterative solver
            54 MiB given to the printing process from OS
             0 MiB allocation reported by mallinfo(arena+hblkhd)
          1268 MiB available memory on the node where the printing process lives
------------------
     ethr =  6.65E-10,  avg # of iterations =  1.0

     negative rho (up, down):  1.792E-01 0.000E+00

     total cpu time spent up to now is        3.0 secs

     total energy              =      -1.76021665 Ry
     estimated scf accuracy    <       0.00000044 Ry

     iteration # 42     ecut=     5.00 Ry     beta= 0.70
     Davidson diagonalization with overlap

---- Real-time Memory Report at c_bands before calling an iterative solver
            54 MiB given to the printing process from OS
             0 MiB allocation reported by mallinfo(arena+hblkhd)
          1268 MiB available memory on the node where the printing process lives
------------------
     ethr =  6.65E-10,  avg # of iterations =  1.0

     negative rho (up, down):  1.793E-01 0.000E+00

     total cpu time spent up to now is        3.1 secs

     total energy              =      -1.76021487 Ry
     estimated scf accuracy    <       0.00000057 Ry

     iteration # 43     ecut=     5.00 Ry     beta= 0.70
     Davidson diagonalization with overlap

---- Real-time Memory Report at c_bands before calling an iterative solver
            54 MiB given to the printing process from OS
             0 MiB allocation reported by mallinfo(arena+hblkhd)
          1268 MiB available memory on the node where the printing process lives
------------------
     ethr =  6.65E-10,  avg # of iterations =  2.0

     negative rho (up, down):  1.793E-01 0.000E+00

     total cpu time spent up to now is        3.2 secs

     total energy              =      -1.76019665 Ry
     estimated scf accuracy    <       0.00000002 Ry

     iteration # 44     ecut=     5.00 Ry     beta= 0.70
     Davidson diagonalization with overlap

---- Real-time Memory Report at c_bands before calling an iterative solver
            54 MiB given to the printing process from OS
             0 MiB allocation reported by mallinfo(arena+hblkhd)
          1268 MiB available memory on the node where the printing process lives
------------------
     ethr =  6.65E-10,  avg # of iterations =  4.0

     negative rho (up, down):  1.793E-01 0.000E+00

     total cpu time spent up to now is        3.3 secs

     total energy              =      -1.76019815 Ry
     estimated scf accuracy    <       0.00000072 Ry

     iteration # 45     ecut=     5.00 Ry     beta= 0.70
     Davidson diagonalization with overlap

---- Real-time Memory Report at c_bands before calling an iterative solver
            54 MiB given to the printing process from OS
             0 MiB allocation reported by mallinfo(arena+hblkhd)
          1268 MiB available memory on the node where the printing process lives
------------------
     ethr =  6.65E-10,  avg # of iterations =  1.0

     negative rho (up, down):  1.793E-01 0.000E+00

     total cpu time spent up to now is        3.3 secs

     total energy              =      -1.76019156 Ry
     estimated scf accuracy    <       0.00000089 Ry

     iteration # 46     ecut=     5.00 Ry     beta= 0.70
     Davidson diagonalization with overlap

---- Real-time Memory Report at c_bands before calling an iterative solver
            54 MiB given to the printing process from OS
             0 MiB allocation reported by mallinfo(arena+hblkhd)
          1268 MiB available memory on the node where the printing process lives
------------------
     ethr =  6.65E-10,  avg # of iterations =  2.0

     negative rho (up, down):  1.793E-01 0.000E+00

     total cpu time spent up to now is        3.4 secs

     total energy              =      -1.76021057 Ry
     estimated scf accuracy    <       0.00000076 Ry

     iteration # 47     ecut=     5.00 Ry     beta= 0.70
     Davidson diagonalization with overlap

---- Real-time Memory Report at c_bands before calling an iterative solver
            54 MiB given to the printing process from OS
             0 MiB allocation reported by mallinfo(arena+hblkhd)
          1268 MiB available memory on the node where the printing process lives
------------------
     ethr =  6.65E-10,  avg # of iterations =  3.0

     negative rho (up, down):  1.793E-01 0.000E+00

     total cpu time spent up to now is        3.5 secs

     total energy              =      -1.76019690 Ry
     estimated scf accuracy    <       0.00000005 Ry

     iteration # 48     ecut=     5.00 Ry     beta= 0.70
     Davidson diagonalization with overlap

---- Real-time Memory Report at c_bands before calling an iterative solver
            54 MiB given to the printing process from OS
             0 MiB allocation reported by mallinfo(arena+hblkhd)
          1268 MiB available memory on the node where the printing process lives
------------------
     ethr =  6.65E-10,  avg # of iterations =  3.0

     negative rho (up, down):  1.793E-01 0.000E+00

     total cpu time spent up to now is        3.5 secs

     total energy              =      -1.76020554 Ry
     estimated scf accuracy    <       0.00000078 Ry

     iteration # 49     ecut=     5.00 Ry     beta= 0.70
     Davidson diagonalization with overlap

---- Real-time Memory Report at c_bands before calling an iterative solver
            54 MiB given to the printing process from OS
             0 MiB allocation reported by mallinfo(arena+hblkhd)
          1268 MiB available memory on the node where the printing process lives
------------------
     ethr =  6.65E-10,  avg # of iterations =  3.0

     negative rho (up, down):  1.793E-01 0.000E+00

     total cpu time spent up to now is        3.6 secs

     total energy              =      -1.76019707 Ry
     estimated scf accuracy    <       0.00000003 Ry

     iteration # 50     ecut=     5.00 Ry     beta= 0.70
     Davidson diagonalization with overlap

---- Real-time Memory Report at c_bands before calling an iterative solver
            54 MiB given to the printing process from OS
             0 MiB allocation reported by mallinfo(arena+hblkhd)
          1268 MiB available memory on the node where the printing process lives
------------------
     ethr =  6.65E-10,  avg # of iterations =  3.0

     negative rho (up, down):  1.793E-01 0.000E+00

     total cpu time spent up to now is        3.7 secs

     total energy              =      -1.76021129 Ry
     estimated scf accuracy    <       0.00000076 Ry

     iteration # 51     ecut=     5.00 Ry     beta= 0.70
     Davidson diagonalization with overlap

---- Real-time Memory Report at c_bands before calling an iterative solver
            54 MiB given to the printing process from OS
             0 MiB allocation reported by mallinfo(arena+hblkhd)
          1268 MiB available memory on the node where the printing process lives
------------------
     ethr =  6.65E-10,  avg # of iterations =  3.0

     negative rho (up, down):  1.793E-01 0.000E+00

     total cpu time spent up to now is        3.8 secs

     total energy              =      -1.76021150 Ry
     estimated scf accuracy    <       0.00000002 Ry

     iteration # 52     ecut=     5.00 Ry     beta= 0.70
     Davidson diagonalization with overlap

---- Real-time Memory Report at c_bands before calling an iterative solver
            54 MiB given to the printing process from OS
             0 MiB allocation reported by mallinfo(arena+hblkhd)
          1268 MiB available memory on the node where the printing process lives
------------------
     ethr =  6.65E-10,  avg # of iterations =  1.0

     negative rho (up, down):  1.792E-01 0.000E+00

     total cpu time spent up to now is        3.8 secs

     total energy              =      -1.76024535 Ry
     estimated scf accuracy    <       0.00000002 Ry

     iteration # 53     ecut=     5.00 Ry     beta= 0.70
     Davidson diagonalization with overlap

---- Real-time Memory Report at c_bands before calling an iterative solver
            54 MiB given to the printing process from OS
             0 MiB allocation reported by mallinfo(arena+hblkhd)
          1267 MiB available memory on the node where the printing process lives
------------------
     ethr =  6.65E-10,  avg # of iterations =  5.0

     negative rho (up, down):  1.792E-01 0.000E+00

     total cpu time spent up to now is        3.9 secs

     total energy              =      -1.76024761 Ry
     estimated scf accuracy    <       0.00000076 Ry

     iteration # 54     ecut=     5.00 Ry     beta= 0.70
     Davidson diagonalization with overlap

---- Real-time Memory Report at c_bands before calling an iterative solver
            54 MiB given to the printing process from OS
             0 MiB allocation reported by mallinfo(arena+hblkhd)
          1267 MiB available memory on the node where the printing process lives
------------------
     ethr =  6.65E-10,  avg # of iterations =  1.0

     negative rho (up, down):  1.792E-01 0.000E+00

     total cpu time spent up to now is        4.0 secs

     total energy              =      -1.76024799 Ry
     estimated scf accuracy    <       0.00000067 Ry

     iteration # 55     ecut=     5.00 Ry     beta= 0.70
     Davidson diagonalization with overlap

---- Real-time Memory Report at c_bands before calling an iterative solver
            54 MiB given to the printing process from OS
             0 MiB allocation reported by mallinfo(arena+hblkhd)
          1267 MiB available memory on the node where the printing process lives
------------------
     ethr =  6.65E-10,  avg # of iterations =  1.0

     negative rho (up, down):  1.792E-01 0.000E+00

     total cpu time spent up to now is        4.0 secs

     total energy              =      -1.76024689 Ry
     estimated scf accuracy    <       0.00000059 Ry

     iteration # 56     ecut=     5.00 Ry     beta= 0.70
     Davidson diagonalization with overlap

---- Real-time Memory Report at c_bands before calling an iterative solver
            54 MiB given to the printing process from OS
             0 MiB allocation reported by mallinfo(arena+hblkhd)
          1267 MiB available memory on the node where the printing process lives
------------------
     ethr =  6.65E-10,  avg # of iterations =  1.0

     negative rho (up, down):  1.793E-01 0.000E+00

     total cpu time spent up to now is        4.1 secs

     total energy              =      -1.76021712 Ry
     estimated scf accuracy    <       0.00000115 Ry

     iteration # 57     ecut=     5.00 Ry     beta= 0.70
     Davidson diagonalization with overlap

---- Real-time Memory Report at c_bands before calling an iterative solver
            54 MiB given to the printing process from OS
             0 MiB allocation reported by mallinfo(arena+hblkhd)
          1267 MiB available memory on the node where the printing process lives
------------------
     ethr =  6.65E-10,  avg # of iterations =  4.0

     negative rho (up, down):  1.793E-01 0.000E+00

     total cpu time spent up to now is        4.2 secs

     total energy              =      -1.76020126 Ry
     estimated scf accuracy    <       0.00000170 Ry

     iteration # 58     ecut=     5.00 Ry     beta= 0.70
     Davidson diagonalization with overlap

---- Real-time Memory Report at c_bands before calling an iterative solver
            54 MiB given to the printing process from OS
             0 MiB allocation reported by mallinfo(arena+hblkhd)
          1267 MiB available memory on the node where the printing process lives
------------------
     ethr =  6.65E-10,  avg # of iterations =  4.0

     negative rho (up, down):  1.793E-01 0.000E+00

     total cpu time spent up to now is        4.3 secs

     total energy              =      -1.76020214 Ry
     estimated scf accuracy    <       0.00000007 Ry

     iteration # 59     ecut=     5.00 Ry     beta= 0.70
     Davidson diagonalization with overlap

---- Real-time Memory Report at c_bands before calling an iterative solver
            54 MiB given to the printing process from OS
             0 MiB allocation reported by mallinfo(arena+hblkhd)
          1268 MiB available memory on the node where the printing process lives
------------------
     ethr =  6.65E-10,  avg # of iterations =  1.0

     negative rho (up, down):  1.792E-01 0.000E+00

     total cpu time spent up to now is        4.3 secs

     total energy              =      -1.76021594 Ry
     estimated scf accuracy    <       0.00000004 Ry

     iteration # 60     ecut=     5.00 Ry     beta= 0.70
     Davidson diagonalization with overlap

---- Real-time Memory Report at c_bands before calling an iterative solver
            54 MiB given to the printing process from OS
             0 MiB allocation reported by mallinfo(arena+hblkhd)
          1268 MiB available memory on the node where the printing process lives
------------------
     ethr =  6.65E-10,  avg # of iterations =  4.0

     negative rho (up, down):  1.793E-01 0.000E+00

     total cpu time spent up to now is        4.4 secs

     total energy              =      -1.76021536 Ry
     estimated scf accuracy    <       0.00000002 Ry

     iteration # 61     ecut=     5.00 Ry     beta= 0.70
     Davidson diagonalization with overlap

---- Real-time Memory Report at c_bands before calling an iterative solver
            54 MiB given to the printing process from OS
             0 MiB allocation reported by mallinfo(arena+hblkhd)
          1268 MiB available memory on the node where the printing process lives
------------------
     ethr =  6.65E-10,  avg # of iterations =  1.0

     negative rho (up, down):  1.793E-01 0.000E+00

     total cpu time spent up to now is        4.5 secs

     total energy              =      -1.76019132 Ry
     estimated scf accuracy    <       0.00000002 Ry

     iteration # 62     ecut=     5.00 Ry     beta= 0.70
     Davidson diagonalization with overlap

---- Real-time Memory Report at c_bands before calling an iterative solver
            54 MiB given to the printing process from OS
             0 MiB allocation reported by mallinfo(arena+hblkhd)
          1268 MiB available memory on the node where the printing process lives
------------------
     ethr =  6.65E-10,  avg # of iterations =  4.0

     negative rho (up, down):  1.793E-01 0.000E+00

     total cpu time spent up to now is        4.5 secs

     total energy              =      -1.76019844 Ry
     estimated scf accuracy    <       0.00000077 Ry

     iteration # 63     ecut=     5.00 Ry     beta= 0.70
     Davidson diagonalization with overlap

---- Real-time Memory Report at c_bands before calling an iterative solver
            54 MiB given to the printing process from OS
             0 MiB allocation reported by mallinfo(arena+hblkhd)
          1268 MiB available memory on the node where the printing process lives
------------------
     ethr =  6.65E-10,  avg # of iterations =  2.0

     negative rho (up, down):  1.793E-01 0.000E+00

     total cpu time spent up to now is        4.6 secs

     total energy              =      -1.76019277 Ry
     estimated scf accuracy    <       0.00000084 Ry

     iteration # 64     ecut=     5.00 Ry     beta= 0.70
     Davidson diagonalization with overlap

---- Real-time Memory Report at c_bands before calling an iterative solver
            54 MiB given to the printing process from OS
             0 MiB allocation reported by mallinfo(arena+hblkhd)
          1268 MiB available memory on the node where the printing process lives
------------------
     ethr =  6.65E-10,  avg # of iterations =  2.0

     negative rho (up, down):  1.793E-01 0.000E+00

     total cpu time spent up to now is        4.7 secs

     total energy              =      -1.76019273 Ry
     estimated scf accuracy    <       0.00000070 Ry

     iteration # 65     ecut=     5.00 Ry     beta= 0.70
     Davidson diagonalization with overlap

---- Real-time Memory Report at c_bands before calling an iterative solver
            54 MiB given to the printing process from OS
             0 MiB allocation reported by mallinfo(arena+hblkhd)
          1268 MiB available memory on the node where the printing process lives
------------------
     ethr =  6.65E-10,  avg # of iterations =  1.0

     negative rho (up, down):  1.793E-01 0.000E+00

     total cpu time spent up to now is        4.8 secs

     total energy              =      -1.76019791 Ry
     estimated scf accuracy    <       0.00000076 Ry

     iteration # 66     ecut=     5.00 Ry     beta= 0.70
     Davidson diagonalization with overlap

---- Real-time Memory Report at c_bands before calling an iterative solver
            54 MiB given to the printing process from OS
             0 MiB allocation reported by mallinfo(arena+hblkhd)
          1268 MiB available memory on the node where the printing process lives
------------------
     ethr =  6.65E-10,  avg # of iterations =  2.0

     negative rho (up, down):  1.793E-01 0.000E+00

     total cpu time spent up to now is        4.8 secs

     total energy              =      -1.76019749 Ry
     estimated scf accuracy    <       0.00000086 Ry

     iteration # 67     ecut=     5.00 Ry     beta= 0.70
     Davidson diagonalization with overlap

---- Real-time Memory Report at c_bands before calling an iterative solver
            54 MiB given to the printing process from OS
             0 MiB allocation reported by mallinfo(arena+hblkhd)
          1268 MiB available memory on the node where the printing process lives
------------------
     ethr =  6.65E-10,  avg # of iterations =  1.0

     negative rho (up, down):  1.793E-01 0.000E+00

     total cpu time spent up to now is        4.9 secs

     total energy              =      -1.76019747 Ry
     estimated scf accuracy    <       0.00000077 Ry

     iteration # 68     ecut=     5.00 Ry     beta= 0.70
     Davidson diagonalization with overlap

---- Real-time Memory Report at c_bands before calling an iterative solver
            54 MiB given to the printing process from OS
             0 MiB allocation reported by mallinfo(arena+hblkhd)
          1268 MiB available memory on the node where the printing process lives
------------------
     ethr =  6.65E-10,  avg # of iterations =  1.0

     negative rho (up, down):  1.793E-01 0.000E+00

     total cpu time spent up to now is        5.0 secs

     total energy              =      -1.76019837 Ry
     estimated scf accuracy    <       0.00000076 Ry

     iteration # 69     ecut=     5.00 Ry     beta= 0.70
     Davidson diagonalization with overlap

---- Real-time Memory Report at c_bands before calling an iterative solver
            54 MiB given to the printing process from OS
             0 MiB allocation reported by mallinfo(arena+hblkhd)
          1268 MiB available memory on the node where the printing process lives
------------------
     ethr =  6.65E-10,  avg # of iterations =  3.0

     negative rho (up, down):  1.793E-01 0.000E+00

     total cpu time spent up to now is        5.0 secs

     total energy              =      -1.76021096 Ry
     estimated scf accuracy    <       0.00000016 Ry

     iteration # 70     ecut=     5.00 Ry     beta= 0.70
     Davidson diagonalization with overlap

---- Real-time Memory Report at c_bands before calling an iterative solver
            54 MiB given to the printing process from OS
             0 MiB allocation reported by mallinfo(arena+hblkhd)
          1268 MiB available memory on the node where the printing process lives
------------------
     ethr =  6.65E-10,  avg # of iterations =  2.0

     negative rho (up, down):  1.792E-01 0.000E+00

     total cpu time spent up to now is        5.1 secs

     total energy              =      -1.76024444 Ry
     estimated scf accuracy    <       0.00000005 Ry

     iteration # 71     ecut=     5.00 Ry     beta= 0.70
     Davidson diagonalization with overlap

---- Real-time Memory Report at c_bands before calling an iterative solver
            54 MiB given to the printing process from OS
             0 MiB allocation reported by mallinfo(arena+hblkhd)
          1268 MiB available memory on the node where the printing process lives
------------------
     ethr =  6.65E-10,  avg # of iterations =  5.0

     negative rho (up, down):  1.792E-01 0.000E+00

     total cpu time spent up to now is        5.2 secs

     total energy              =      -1.76021644 Ry
     estimated scf accuracy    <       0.00000071 Ry

     iteration # 72     ecut=     5.00 Ry     beta= 0.70
     Davidson diagonalization with overlap

---- Real-time Memory Report at c_bands before calling an iterative solver
            54 MiB given to the printing process from OS
             0 MiB allocation reported by mallinfo(arena+hblkhd)
          1268 MiB available memory on the node where the printing process lives
------------------
     ethr =  6.65E-10,  avg # of iterations =  4.0

     negative rho (up, down):  1.793E-01 0.000E+00

     total cpu time spent up to now is        5.3 secs

     total energy              =      -1.76019100 Ry
     estimated scf accuracy    <       0.00000004 Ry

     iteration # 73     ecut=     5.00 Ry     beta= 0.70
     Davidson diagonalization with overlap

---- Real-time Memory Report at c_bands before calling an iterative solver
            54 MiB given to the printing process from OS
             0 MiB allocation reported by mallinfo(arena+hblkhd)
          1268 MiB available memory on the node where the printing process lives
------------------
     ethr =  6.65E-10,  avg # of iterations =  4.0

     negative rho (up, down):  1.793E-01 0.000E+00

     total cpu time spent up to now is        5.4 secs

     total energy              =      -1.76019218 Ry
     estimated scf accuracy    <       0.00000068 Ry

     iteration # 74     ecut=     5.00 Ry     beta= 0.70
     Davidson diagonalization with overlap

---- Real-time Memory Report at c_bands before calling an iterative solver
            54 MiB given to the printing process from OS
             0 MiB allocation reported by mallinfo(arena+hblkhd)
          1268 MiB available memory on the node where the printing process lives
------------------
     ethr =  6.65E-10,  avg # of iterations =  1.0

     negative rho (up, down):  1.793E-01 0.000E+00

     total cpu time spent up to now is        5.4 secs

     total energy              =      -1.76020650 Ry
     estimated scf accuracy    <       0.00000066 Ry

     iteration # 75     ecut=     5.00 Ry     beta= 0.70
     Davidson diagonalization with overlap

---- Real-time Memory Report at c_bands before calling an iterative solver
            54 MiB given to the printing process from OS
             0 MiB allocation reported by mallinfo(arena+hblkhd)
          1268 MiB available memory on the node where the printing process lives
------------------
     ethr =  6.65E-10,  avg # of iterations =  3.0

     negative rho (up, down):  1.793E-01 0.000E+00

     total cpu time spent up to now is        5.5 secs

     total energy              =      -1.76018687 Ry
     estimated scf accuracy    <       0.00000004 Ry

     iteration # 76     ecut=     5.00 Ry     beta= 0.70
     Davidson diagonalization with overlap

---- Real-time Memory Report at c_bands before calling an iterative solver
            54 MiB given to the printing process from OS
             0 MiB allocation reported by mallinfo(arena+hblkhd)
          1268 MiB available memory on the node where the printing process lives
------------------
     ethr =  6.65E-10,  avg # of iterations =  3.0

     negative rho (up, down):  1.793E-01 0.000E+00

     total cpu time spent up to now is        5.6 secs

     total energy              =      -1.76018728 Ry
     estimated scf accuracy    <       0.00000161 Ry

     iteration # 77     ecut=     5.00 Ry     beta= 0.70
     Davidson diagonalization with overlap

---- Real-time Memory Report at c_bands before calling an iterative solver
            54 MiB given to the printing process from OS
             0 MiB allocation reported by mallinfo(arena+hblkhd)
          1268 MiB available memory on the node where the printing process lives
------------------
     ethr =  6.65E-10,  avg # of iterations =  1.0

     negative rho (up, down):  1.793E-01 0.000E+00

     total cpu time spent up to now is        5.6 secs

     total energy              =      -1.76018732 Ry
     estimated scf accuracy    <       0.00000164 Ry

     iteration # 78     ecut=     5.00 Ry     beta= 0.70
     Davidson diagonalization with overlap

---- Real-time Memory Report at c_bands before calling an iterative solver
            54 MiB given to the printing process from OS
             0 MiB allocation reported by mallinfo(arena+hblkhd)
          1268 MiB available memory on the node where the printing process lives
------------------
     ethr =  6.65E-10,  avg # of iterations =  1.0

     negative rho (up, down):  1.793E-01 0.000E+00

     total cpu time spent up to now is        5.7 secs

     total energy              =      -1.76019265 Ry
     estimated scf accuracy    <       0.00000164 Ry

     iteration # 79     ecut=     5.00 Ry     beta= 0.70
     Davidson diagonalization with overlap

---- Real-time Memory Report at c_bands before calling an iterative solver
            54 MiB given to the printing process from OS
             0 MiB allocation reported by mallinfo(arena+hblkhd)
          1268 MiB available memory on the node where the printing process lives
------------------
     ethr =  6.65E-10,  avg # of iterations =  2.0

     negative rho (up, down):  1.793E-01 0.000E+00

     total cpu time spent up to now is        5.8 secs

     total energy              =      -1.76021944 Ry
     estimated scf accuracy    <       0.00000073 Ry

     iteration # 80     ecut=     5.00 Ry     beta= 0.70
     Davidson diagonalization with overlap

---- Real-time Memory Report at c_bands before calling an iterative solver
            54 MiB given to the printing process from OS
             0 MiB allocation reported by mallinfo(arena+hblkhd)
          1268 MiB available memory on the node where the printing process lives
------------------
     ethr =  6.65E-10,  avg # of iterations =  4.0

     negative rho (up, down):  1.793E-01 0.000E+00

     total cpu time spent up to now is        5.9 secs

     total energy              =      -1.76020453 Ry
     estimated scf accuracy    <       0.00000025 Ry

     iteration # 81     ecut=     5.00 Ry     beta= 0.70
     Davidson diagonalization with overlap

---- Real-time Memory Report at c_bands before calling an iterative solver
            54 MiB given to the printing process from OS
             0 MiB allocation reported by mallinfo(arena+hblkhd)
          1268 MiB available memory on the node where the printing process lives
------------------
     ethr =  6.65E-10,  avg # of iterations =  4.0

     negative rho (up, down):  1.793E-01 0.000E+00

     total cpu time spent up to now is        5.9 secs

     total energy              =      -1.76019988 Ry
     estimated scf accuracy    <       0.00000005 Ry

     iteration # 82     ecut=     5.00 Ry     beta= 0.70
     Davidson diagonalization with overlap

---- Real-time Memory Report at c_bands before calling an iterative solver
            54 MiB given to the printing process from OS
             0 MiB allocation reported by mallinfo(arena+hblkhd)
          1268 MiB available memory on the node where the printing process lives
------------------
     ethr =  6.65E-10,  avg # of iterations =  2.0

     negative rho (up, down):  1.793E-01 0.000E+00

     total cpu time spent up to now is        6.0 secs

     total energy              =      -1.76020553 Ry
     estimated scf accuracy    <       0.00000003 Ry

     iteration # 83     ecut=     5.00 Ry     beta= 0.70
     Davidson diagonalization with overlap

---- Real-time Memory Report at c_bands before calling an iterative solver
            54 MiB given to the printing process from OS
             0 MiB allocation reported by mallinfo(arena+hblkhd)
          1268 MiB available memory on the node where the printing process lives
------------------
     ethr =  6.65E-10,  avg # of iterations =  2.0

     negative rho (up, down):  1.793E-01 0.000E+00

     total cpu time spent up to now is        6.1 secs

     total energy              =      -1.76019139 Ry
     estimated scf accuracy    <       0.00000006 Ry

     iteration # 84     ecut=     5.00 Ry     beta= 0.70
     Davidson diagonalization with overlap

---- Real-time Memory Report at c_bands before calling an iterative solver
            54 MiB given to the printing process from OS
             0 MiB allocation reported by mallinfo(arena+hblkhd)
          1268 MiB available memory on the node where the printing process lives
------------------
     ethr =  6.65E-10,  avg # of iterations =  3.0

     negative rho (up, down):  1.793E-01 0.000E+00

     total cpu time spent up to now is        6.1 secs

     total energy              =      -1.76020569 Ry
     estimated scf accuracy    <       0.00000064 Ry

     iteration # 85     ecut=     5.00 Ry     beta= 0.70
     Davidson diagonalization with overlap

---- Real-time Memory Report at c_bands before calling an iterative solver
            54 MiB given to the printing process from OS
             0 MiB allocation reported by mallinfo(arena+hblkhd)
          1268 MiB available memory on the node where the printing process lives
------------------
     ethr =  6.65E-10,  avg # of iterations =  3.0

     negative rho (up, down):  1.793E-01 0.000E+00

     total cpu time spent up to now is        6.2 secs

     total energy              =      -1.76020569 Ry
     estimated scf accuracy    <       0.00000005 Ry

     iteration # 86     ecut=     5.00 Ry     beta= 0.70
     Davidson diagonalization with overlap

---- Real-time Memory Report at c_bands before calling an iterative solver
            54 MiB given to the printing process from OS
             0 MiB allocation reported by mallinfo(arena+hblkhd)
          1268 MiB available memory on the node where the printing process lives
------------------
     ethr =  6.65E-10,  avg # of iterations =  1.0

     negative rho (up, down):  1.793E-01 0.000E+00

     total cpu time spent up to now is        6.3 secs

     total energy              =      -1.76020017 Ry
     estimated scf accuracy    <       0.00000005 Ry

     iteration # 87     ecut=     5.00 Ry     beta= 0.70
     Davidson diagonalization with overlap

---- Real-time Memory Report at c_bands before calling an iterative solver
            54 MiB given to the printing process from OS
             0 MiB allocation reported by mallinfo(arena+hblkhd)
          1268 MiB available memory on the node where the printing process lives
------------------
     ethr =  6.65E-10,  avg # of iterations =  2.0

     negative rho (up, down):  1.793E-01 0.000E+00

     total cpu time spent up to now is        6.4 secs

     total energy              =      -1.76020023 Ry
     estimated scf accuracy    <       0.00000004 Ry

     iteration # 88     ecut=     5.00 Ry     beta= 0.70
     Davidson diagonalization with overlap

---- Real-time Memory Report at c_bands before calling an iterative solver
            54 MiB given to the printing process from OS
             0 MiB allocation reported by mallinfo(arena+hblkhd)
          1268 MiB available memory on the node where the printing process lives
------------------
     ethr =  6.65E-10,  avg # of iterations =  1.0

     negative rho (up, down):  1.793E-01 0.000E+00

     total cpu time spent up to now is        6.4 secs

     total energy              =      -1.76019576 Ry
     estimated scf accuracy    <       0.00000004 Ry

     iteration # 89     ecut=     5.00 Ry     beta= 0.70
     Davidson diagonalization with overlap

---- Real-time Memory Report at c_bands before calling an iterative solver
            54 MiB given to the printing process from OS
             0 MiB allocation reported by mallinfo(arena+hblkhd)
          1268 MiB available memory on the node where the printing process lives
------------------
     ethr =  6.65E-10,  avg # of iterations =  1.0

     negative rho (up, down):  1.792E-01 0.000E+00

     total cpu time spent up to now is        6.5 secs

     total energy              =      -1.76026074 Ry
     estimated scf accuracy    <       0.00000003 Ry

     iteration # 90     ecut=     5.00 Ry     beta= 0.70
     Davidson diagonalization with overlap

---- Real-time Memory Report at c_bands before calling an iterative solver
            54 MiB given to the printing process from OS
             0 MiB allocation reported by mallinfo(arena+hblkhd)
          1268 MiB available memory on the node where the printing process lives
------------------
     ethr =  6.65E-10,  avg # of iterations =  5.0

     negative rho (up, down):  1.792E-01 0.000E+00

     total cpu time spent up to now is        6.6 secs

     total energy              =      -1.76026264 Ry
     estimated scf accuracy    <       0.00000081 Ry

     iteration # 91     ecut=     5.00 Ry     beta= 0.70
     Davidson diagonalization with overlap

---- Real-time Memory Report at c_bands before calling an iterative solver
            54 MiB given to the printing process from OS
             0 MiB allocation reported by mallinfo(arena+hblkhd)
          1268 MiB available memory on the node where the printing process lives
------------------
     ethr =  6.65E-10,  avg # of iterations =  1.0

     negative rho (up, down):  1.792E-01 0.000E+00

     total cpu time spent up to now is        6.6 secs

     total energy              =      -1.76026840 Ry
     estimated scf accuracy    <       0.00000066 Ry

     iteration # 92     ecut=     5.00 Ry     beta= 0.70
     Davidson diagonalization with overlap

---- Real-time Memory Report at c_bands before calling an iterative solver
            54 MiB given to the printing process from OS
             0 MiB allocation reported by mallinfo(arena+hblkhd)
          1268 MiB available memory on the node where the printing process lives
------------------
     ethr =  6.65E-10,  avg # of iterations =  2.0

     negative rho (up, down):  1.792E-01 0.000E+00

     total cpu time spent up to now is        6.7 secs

     total energy              =      -1.76027376 Ry
     estimated scf accuracy    <       0.00000205 Ry

     iteration # 93     ecut=     5.00 Ry     beta= 0.70
     Davidson diagonalization with overlap

---- Real-time Memory Report at c_bands before calling an iterative solver
            54 MiB given to the printing process from OS
             0 MiB allocation reported by mallinfo(arena+hblkhd)
          1268 MiB available memory on the node where the printing process lives
------------------
     ethr =  6.65E-10,  avg # of iterations =  1.0

     negative rho (up, down):  1.792E-01 0.000E+00

     total cpu time spent up to now is        6.8 secs

     total energy              =      -1.76023676 Ry
     estimated scf accuracy    <       0.00000241 Ry

     iteration # 94     ecut=     5.00 Ry     beta= 0.70
     Davidson diagonalization with overlap

---- Real-time Memory Report at c_bands before calling an iterative solver
            54 MiB given to the printing process from OS
             0 MiB allocation reported by mallinfo(arena+hblkhd)
          1268 MiB available memory on the node where the printing process lives
------------------
     ethr =  6.65E-10,  avg # of iterations =  4.0

     negative rho (up, down):  1.792E-01 0.000E+00

     total cpu time spent up to now is        6.9 secs

     total energy              =      -1.76023149 Ry
     estimated scf accuracy    <       0.00000002 Ry

     iteration # 95     ecut=     5.00 Ry     beta= 0.70
     Davidson diagonalization with overlap

---- Real-time Memory Report at c_bands before calling an iterative solver
            54 MiB given to the printing process from OS
             0 MiB allocation reported by mallinfo(arena+hblkhd)
          1268 MiB available memory on the node where the printing process lives
------------------
     ethr =  6.65E-10,  avg # of iterations =  2.0

     negative rho (up, down):  1.793E-01 0.000E+00

     total cpu time spent up to now is        6.9 secs

     total energy              =      -1.76019096 Ry
     estimated scf accuracy    <       0.00000020 Ry

     iteration # 96     ecut=     5.00 Ry     beta= 0.70
     Davidson diagonalization with overlap

---- Real-time Memory Report at c_bands before calling an iterative solver
            54 MiB given to the printing process from OS
             0 MiB allocation reported by mallinfo(arena+hblkhd)
          1268 MiB available memory on the node where the printing process lives
------------------
     ethr =  6.65E-10,  avg # of iterations =  4.0

     negative rho (up, down):  1.793E-01 0.000E+00

     total cpu time spent up to now is        7.0 secs

     total energy              =      -1.76019209 Ry
     estimated scf accuracy    <       0.00000077 Ry

     iteration # 97     ecut=     5.00 Ry     beta= 0.70
     Davidson diagonalization with overlap

---- Real-time Memory Report at c_bands before calling an iterative solver
            54 MiB given to the printing process from OS
             0 MiB allocation reported by mallinfo(arena+hblkhd)
          1268 MiB available memory on the node where the printing process lives
------------------
     ethr =  6.65E-10,  avg # of iterations =  1.0

     negative rho (up, down):  1.793E-01 0.000E+00

     total cpu time spent up to now is        7.1 secs

     total energy              =      -1.76020669 Ry
     estimated scf accuracy    <       0.00000068 Ry

     iteration # 98     ecut=     5.00 Ry     beta= 0.70
     Davidson diagonalization with overlap

---- Real-time Memory Report at c_bands before calling an iterative solver
            54 MiB given to the printing process from OS
             0 MiB allocation reported by mallinfo(arena+hblkhd)
          1268 MiB available memory on the node where the printing process lives
------------------
     ethr =  6.65E-10,  avg # of iterations =  3.0

     negative rho (up, down):  1.793E-01 0.000E+00

     total cpu time spent up to now is        7.1 secs

     total energy              =      -1.76020109 Ry
     estimated scf accuracy    <       0.00000005 Ry

     iteration # 99     ecut=     5.00 Ry     beta= 0.70
     Davidson diagonalization with overlap

---- Real-time Memory Report at c_bands before calling an iterative solver
            54 MiB given to the printing process from OS
             0 MiB allocation reported by mallinfo(arena+hblkhd)
          1268 MiB available memory on the node where the printing process lives
------------------
     ethr =  6.65E-10,  avg # of iterations =  2.0

     negative rho (up, down):  1.793E-01 0.000E+00

     total cpu time spent up to now is        7.2 secs

     total energy              =      -1.76020131 Ry
     estimated scf accuracy    <       0.00000004 Ry

     iteration #100     ecut=     5.00 Ry     beta= 0.70
     Davidson diagonalization with overlap

---- Real-time Memory Report at c_bands before calling an iterative solver
            54 MiB given to the printing process from OS
             0 MiB allocation reported by mallinfo(arena+hblkhd)
          1268 MiB available memory on the node where the printing process lives
------------------
     ethr =  6.65E-10,  avg # of iterations =  1.0

     negative rho (up, down):  1.793E-01 0.000E+00

     total cpu time spent up to now is        7.3 secs

     total energy              =      -1.76019262 Ry
     estimated scf accuracy    <       0.00000005 Ry

     End of self-consistent calculation

     convergence NOT achieved after 100 iterations: stopping

     Writing config to output data dir ./.save/
     Message from routine punch:
     wavefunctions written to file

     init_run     :      0.07s CPU      0.08s WALL (       1 calls)
     electrons    :      7.17s CPU      7.20s WALL (       1 calls)

     Called by init_run:
     wfcinit      :      0.01s CPU      0.01s WALL (       1 calls)
     wfcinit:atom :      0.00s CPU      0.00s WALL (       1 calls)
     wfcinit:wfcr :      0.00s CPU      0.00s WALL (       1 calls)
     potinit      :      0.04s CPU      0.05s WALL (       1 calls)
     hinit0       :      0.01s CPU      0.01s WALL (       1 calls)

     Called by electrons:
     c_bands      :      1.27s CPU      1.27s WALL (     100 calls)
     sum_band     :      0.80s CPU      0.80s WALL (     100 calls)
     v_of_rho     :      3.95s CPU      3.97s WALL (     101 calls)
     v_h          :      0.20s CPU      0.20s WALL (     101 calls)
     v_xc         :      3.75s CPU      3.77s WALL (     101 calls)
     newd         :      0.25s CPU      0.25s WALL (     101 calls)
     mix_rho      :      0.86s CPU      0.86s WALL (     100 calls)

     Called by c_bands:
     init_us_2    :      0.03s CPU      0.03s WALL (     201 calls)
     init_us_2:cp :      0.03s CPU      0.03s WALL (     201 calls)
     cegterg      :      1.25s CPU      1.25s WALL (     100 calls)

     Called by sum_band:
     sum_band:wei :      0.00s CPU      0.00s WALL (     100 calls)
     sum_band:loo :      0.23s CPU      0.23s WALL (     100 calls)
     sum_band:buf :      0.00s CPU      0.00s WALL (     100 calls)
     sum_band:ini :      0.01s CPU      0.01s WALL (     100 calls)
     sum_band:cal :      0.00s CPU      0.00s WALL (     100 calls)
     sum_band:bec :      0.00s CPU      0.00s WALL (     100 calls)
     addusdens    :      0.07s CPU      0.07s WALL (     100 calls)
     addusd:skk   :      0.03s CPU      0.03s WALL (     100 calls)
     addusd:dgemm :      0.02s CPU      0.02s WALL (     100 calls)
     addusd:qvan2 :      0.02s CPU      0.02s WALL (     100 calls)

     Called by *egterg:
     cdiaghg      :      0.01s CPU      0.01s WALL (     334 calls)
     cegterg:over :      0.01s CPU      0.01s WALL (     234 calls)
     cegterg:upda :      0.01s CPU      0.01s WALL (     234 calls)
     cegterg:last :      0.02s CPU      0.02s WALL (     191 calls)
     h_psi        :      1.17s CPU      1.18s WALL (     335 calls)
     s_psi        :      0.01s CPU      0.01s WALL (     335 calls)
     g_psi        :      0.01s CPU      0.01s WALL (     234 calls)

     Called by h_psi:
     h_psi:calbec :      0.01s CPU      0.01s WALL (     335 calls)
     vloc_psi     :      1.15s CPU      1.16s WALL (     335 calls)
     add_vuspsi   :      0.01s CPU      0.01s WALL (     335 calls)

     General routines
     calbec       :      0.01s CPU      0.01s WALL (     435 calls)
     fft          :      1.72s CPU      1.73s WALL (    1111 calls)
     ffts         :      0.15s CPU      0.15s WALL (     100 calls)
     fftw         :      1.25s CPU      1.26s WALL (    1272 calls)
     davcio       :      0.00s CPU      0.00s WALL (      19 calls)


     PWSCF        :      7.26s CPU      7.30s WALL


   This run was terminated on:  22:14:50  28Feb2022            

=------------------------------------------------------------------------------=
   JOB DONE.
=------------------------------------------------------------------------------=
