
     Program PWSCF v.7.0 starts on 28Feb2022 at 22:28:40 

     This program is part of the open-source Quantum ESPRESSO suite
     for quantum simulation of materials; please cite
         "P. Giannozzi et al., J. Phys.:Condens. Matter 21 395502 (2009);
         "P. Giannozzi et al., J. Phys.:Condens. Matter 29 465901 (2017);
         "P. Giannozzi et al., J. Chem. Phys. 152 154105 (2020);
          URL http://www.quantum-espresso.org", 
     in publications or presentations arising from this work. More details at
     http://www.quantum-espresso.org/quote

     Serial version
     1243 MiB available memory on the printing compute node when the environment starts

     Waiting for input...
     Reading input from standard input

     Current dimensions of program PWSCF are:
     Max number of different atomic species (ntypx) = 10
     Max number of k-points (npk) =  40000
     Max angular momentum in pseudopotentials (lmaxx) =  4

    ============================================================
    |  pseudopotential report for atomic species:  1           |
    |        pseudo potential version   7   3   2              |
    ------------------------------------------------------------
    |  hydrogen            PBE                  exchange-corr  |
    |  z =   1.    zv( 1) =   1.    exfact =   5.00000         |
    |  ifpcor =  0           atomic energy =  -0.91772 Ry      |
    |  index    orbital      occupation    energy              |
    |    1        100           1.00       -0.48               |
    |  rinner =  0.5000                                        |
    |    new generation scheme:                                |
    |    nbeta =  1     kkbeta =  271     rcloc =    0.6000    |
    |    ibeta    l     epsilon   rcut                         |
    |      1       0      -0.48   0.80                         |
    ============================================================

     IMPORTANT: XC functional enforced from input :
     Exchange-correlation= BLYP
                           (   1   3   1   3   0   0   0)
     Any further DFT definition will be discarded
     Please, verify this is what you really want


     G-vector sticks info
     --------------------
     sticks:   dense  smooth     PW     G-vecs:    dense   smooth      PW
     Sum        7153    7153   1925               455863   455863   63461

     Using Slab Decomposition



     bravais-lattice index     =            1
     lattice parameter (alat)  =      30.0000  a.u.
     unit-cell volume          =   27000.0000 (a.u.)^3
     number of atoms/cell      =            2
     number of atomic types    =            1
     number of electrons       =         2.00
     number of Kohn-Sham states=            2
     kinetic-energy cutoff     =      25.0000  Ry
     charge density cutoff     =     100.0000  Ry
     scf convergence threshold =      1.0E-08
     mixing beta               =       0.7000
     number of iterations used =            8  plain     mixing
     Exchange-correlation= BLYP
                           (   1   3   1   3   0   0   0)

     celldm(1)=  30.000000  celldm(2)=   0.000000  celldm(3)=   0.000000
     celldm(4)=   0.000000  celldm(5)=   0.000000  celldm(6)=   0.000000

     crystal axes: (cart. coord. in units of alat)
               a(1) = (   1.000000   0.000000   0.000000 )  
               a(2) = (   0.000000   1.000000   0.000000 )  
               a(3) = (   0.000000   0.000000   1.000000 )  

     reciprocal axes: (cart. coord. in units 2 pi/alat)
               b(1) = (  1.000000  0.000000  0.000000 )  
               b(2) = (  0.000000  1.000000  0.000000 )  
               b(3) = (  0.000000  0.000000  1.000000 )  


     PseudoPot. # 1 for hy read from file:
     /root/q-e/pseudo/H_US.van
     MD5 check sum: a9a9bfe98ff56cf4de197d71fc46bb44
     Pseudo is Ultrasoft, Zval =  1.0
     Generated by Vanderbilt code, v. 7.3.2
     Using radial grid of  399 points,  1 beta functions with: 
                l(1) =   0
     Q(r) pseudized with  8 coefficients,  rinner =    0.500

     atomic species   valence    mass     pseudopotential
        H              1.00     1.00784     hy( 1.00)

      8 Sym. Ops. (no inversion) found


                                    s                        frac. trans.

      isym =  1     identity                                     

 cryst.   s( 1) = (     1          0          0      )
                  (     0          1          0      )
                  (     0          0          1      )

 cart.    s( 1) = (  1.0000000  0.0000000  0.0000000 )
                  (  0.0000000  1.0000000  0.0000000 )
                  (  0.0000000  0.0000000  1.0000000 )


      isym =  2     180 deg rotation - cart. axis [1,0,0]        

 cryst.   s( 2) = (     1          0          0      )
                  (     0         -1          0      )
                  (     0          0         -1      )

 cart.    s( 2) = (  1.0000000  0.0000000  0.0000000 )
                  (  0.0000000 -1.0000000  0.0000000 )
                  (  0.0000000  0.0000000 -1.0000000 )


      isym =  3      90 deg rotation - cart. axis [-1,0,0]       

 cryst.   s( 3) = (     1          0          0      )
                  (     0          0         -1      )
                  (     0          1          0      )

 cart.    s( 3) = (  1.0000000  0.0000000  0.0000000 )
                  (  0.0000000  0.0000000  1.0000000 )
                  (  0.0000000 -1.0000000  0.0000000 )


      isym =  4      90 deg rotation - cart. axis [1,0,0]        

 cryst.   s( 4) = (     1          0          0      )
                  (     0          0          1      )
                  (     0         -1          0      )

 cart.    s( 4) = (  1.0000000  0.0000000  0.0000000 )
                  (  0.0000000  0.0000000 -1.0000000 )
                  (  0.0000000  1.0000000  0.0000000 )


      isym =  5     inv. 180 deg rotation - cart. axis [0,0,1]   

 cryst.   s( 5) = (     1          0          0      )
                  (     0          1          0      )
                  (     0          0         -1      )

 cart.    s( 5) = (  1.0000000  0.0000000  0.0000000 )
                  (  0.0000000  1.0000000  0.0000000 )
                  (  0.0000000  0.0000000 -1.0000000 )


      isym =  6     inv. 180 deg rotation - cart. axis [0,1,0]   

 cryst.   s( 6) = (     1          0          0      )
                  (     0         -1          0      )
                  (     0          0          1      )

 cart.    s( 6) = (  1.0000000  0.0000000  0.0000000 )
                  (  0.0000000 -1.0000000  0.0000000 )
                  (  0.0000000  0.0000000  1.0000000 )


      isym =  7     inv. 180 deg rotation - cart. axis [0,1,1]   

 cryst.   s( 7) = (     1          0          0      )
                  (     0          0         -1      )
                  (     0         -1          0      )

 cart.    s( 7) = (  1.0000000  0.0000000  0.0000000 )
                  (  0.0000000  0.0000000 -1.0000000 )
                  (  0.0000000 -1.0000000  0.0000000 )


      isym =  8     inv. 180 deg rotation - cart. axis [0,1,-1]  

 cryst.   s( 8) = (     1          0          0      )
                  (     0          0          1      )
                  (     0          1          0      )

 cart.    s( 8) = (  1.0000000  0.0000000  0.0000000 )
                  (  0.0000000  0.0000000  1.0000000 )
                  (  0.0000000  1.0000000  0.0000000 )


     point group C_4v (4mm) 
     there are  5 classes
     the character table:

       E     2C4   C2    2s_v  2s_d 
A_1    1.00  1.00  1.00  1.00  1.00
A_2    1.00  1.00  1.00 -1.00 -1.00
B_1    1.00 -1.00  1.00  1.00 -1.00
B_2    1.00 -1.00  1.00 -1.00  1.00
E      2.00  0.00 -2.00  0.00  0.00

     the symmetry operations in each class and the name of the first element:

     E        1
          identity                                               
     2C4      3    4
           90 deg rotation - cart. axis [-1,0,0]                 
     C2       2
          180 deg rotation - cart. axis [1,0,0]                  
     2s_v     5    6
          inv. 180 deg rotation - cart. axis [0,0,1]             
     2s_d     7    8
          inv. 180 deg rotation - cart. axis [0,1,1]             

   Cartesian axes

     site n.     atom                  positions (alat units)
         1           H   tau(   1) = (   0.0000000   0.0000000   0.0000000  )
         2           H   tau(   2) = (   0.3149544   0.0000000   0.0000000  )

   Crystallographic axes

     site n.     atom                  positions (cryst. coord.)
         1           H   tau(   1) = (  0.0000000  0.0000000  0.0000000  )
         2           H   tau(   2) = (  0.3149544  0.0000000  0.0000000  )

     number of k points=     1
                       cart. coord. in units 2pi/alat
        k(    1) = (  -0.5000000  -0.5000000  -0.5000000), wk =   2.0000000

                       cryst. coord.
        k(    1) = (  -0.5000000  -0.5000000  -0.5000000), wk =   2.0000000

     Dense  grid:   455863 G-vectors     FFT dimensions: (  96,  96,  96)

     Dynamical RAM for                 wfc:       1.74 MB

     Dynamical RAM for     wfc (w. buffer):       1.74 MB

     Dynamical RAM for           str. fact:       6.96 MB

     Dynamical RAM for           local pot:       0.00 MB

     Dynamical RAM for          nlocal pot:       1.74 MB

     Dynamical RAM for                qrad:       0.01 MB

     Dynamical RAM for          rho,v,vnew:      41.12 MB

     Dynamical RAM for               rhoin:      13.71 MB

     Dynamical RAM for            rho*nmix:     111.29 MB

     Dynamical RAM for           G-vectors:      29.56 MB

     Dynamical RAM for          h,s,v(r/c):       0.00 MB

     Dynamical RAM for          <psi|beta>:       0.00 MB

     Dynamical RAM for                 psi:       3.48 MB

     Dynamical RAM for                hpsi:       3.48 MB

     Dynamical RAM for                spsi:       3.48 MB

     Dynamical RAM for      wfcinit/wfcrot:       3.48 MB

     Dynamical RAM for           addusdens:      41.74 MB

     Estimated static dynamical RAM per process >     142.49 MB

     Estimated max dynamical RAM per process >     295.52 MB

     Initial potential from superposition of free atoms

     starting charge       2.0000, renormalised to       2.0000

     negative rho (up, down):  2.975E-02 0.000E+00
     Starting wfcs are    2 randomized atomic wfcs

     total cpu time spent up to now is        0.8 secs

     Self-consistent Calculation

     iteration #  1     ecut=    25.00 Ry     beta= 0.70
     Davidson diagonalization with overlap

---- Real-time Memory Report at c_bands before calling an iterative solver
           246 MiB given to the printing process from OS
             0 MiB allocation reported by mallinfo(arena+hblkhd)
          1072 MiB available memory on the node where the printing process lives
------------------
     ethr =  1.00E-02,  avg # of iterations =  1.0

     Threshold (ethr) on eigenvalues was too large:
     Diagonalizing with lowered threshold

     Davidson diagonalization with overlap

---- Real-time Memory Report at c_bands before calling an iterative solver
           246 MiB given to the printing process from OS
             0 MiB allocation reported by mallinfo(arena+hblkhd)
          1072 MiB available memory on the node where the printing process lives
------------------
     ethr =  1.93E-05,  avg # of iterations =  2.0

     negative rho (up, down):  2.384E-02 0.000E+00

     total cpu time spent up to now is        1.8 secs

     total energy              =      -1.83927915 Ry
     estimated scf accuracy    <       0.00030378 Ry

     iteration #  2     ecut=    25.00 Ry     beta= 0.70
     Davidson diagonalization with overlap

---- Real-time Memory Report at c_bands before calling an iterative solver
           309 MiB given to the printing process from OS
             0 MiB allocation reported by mallinfo(arena+hblkhd)
           947 MiB available memory on the node where the printing process lives
------------------
     ethr =  1.52E-05,  avg # of iterations =  2.0

     negative rho (up, down):  2.382E-02 0.000E+00

     total cpu time spent up to now is        2.5 secs

     total energy              =      -1.83714741 Ry
     estimated scf accuracy    <       0.93040185 Ry

     iteration #  3     ecut=    25.00 Ry     beta= 0.70
     Davidson diagonalization with overlap

---- Real-time Memory Report at c_bands before calling an iterative solver
           323 MiB given to the printing process from OS
             0 MiB allocation reported by mallinfo(arena+hblkhd)
           932 MiB available memory on the node where the printing process lives
------------------
     ethr =  1.52E-05,  avg # of iterations =  1.0

     negative rho (up, down):  2.158E-02 0.000E+00

     total cpu time spent up to now is        3.2 secs

     total energy              =      -1.84074701 Ry
     estimated scf accuracy    <       0.00156449 Ry

     iteration #  4     ecut=    25.00 Ry     beta= 0.70
     Davidson diagonalization with overlap

---- Real-time Memory Report at c_bands before calling an iterative solver
           336 MiB given to the printing process from OS
             0 MiB allocation reported by mallinfo(arena+hblkhd)
           918 MiB available memory on the node where the printing process lives
------------------
     ethr =  1.52E-05,  avg # of iterations =  1.0

     negative rho (up, down):  2.166E-02 0.000E+00

     total cpu time spent up to now is        3.9 secs

     total energy              =      -1.84074559 Ry
     estimated scf accuracy    <       0.07681540 Ry

     iteration #  5     ecut=    25.00 Ry     beta= 0.70
     Davidson diagonalization with overlap

---- Real-time Memory Report at c_bands before calling an iterative solver
           351 MiB given to the printing process from OS
             0 MiB allocation reported by mallinfo(arena+hblkhd)
           904 MiB available memory on the node where the printing process lives
------------------
     ethr =  1.52E-05,  avg # of iterations =  1.0

     negative rho (up, down):  2.159E-02 0.000E+00

     total cpu time spent up to now is        4.7 secs

     total energy              =      -1.84068485 Ry
     estimated scf accuracy    <       0.01784457 Ry

     iteration #  6     ecut=    25.00 Ry     beta= 0.70
     Davidson diagonalization with overlap

---- Real-time Memory Report at c_bands before calling an iterative solver
           364 MiB given to the printing process from OS
             0 MiB allocation reported by mallinfo(arena+hblkhd)
           891 MiB available memory on the node where the printing process lives
------------------
     ethr =  1.52E-05,  avg # of iterations =  1.0

     negative rho (up, down):  2.153E-02 0.000E+00

     total cpu time spent up to now is        5.4 secs

     total energy              =      -1.84066538 Ry
     estimated scf accuracy    <       0.02781567 Ry

     iteration #  7     ecut=    25.00 Ry     beta= 0.70
     Davidson diagonalization with overlap

---- Real-time Memory Report at c_bands before calling an iterative solver
           378 MiB given to the printing process from OS
             0 MiB allocation reported by mallinfo(arena+hblkhd)
           877 MiB available memory on the node where the printing process lives
------------------
     ethr =  1.52E-05,  avg # of iterations =  1.0

     negative rho (up, down):  2.154E-02 0.000E+00

     total cpu time spent up to now is        6.1 secs

     total energy              =      -1.84077827 Ry
     estimated scf accuracy    <       0.04049947 Ry

     iteration #  8     ecut=    25.00 Ry     beta= 0.70
     Davidson diagonalization with overlap

---- Real-time Memory Report at c_bands before calling an iterative solver
           392 MiB given to the printing process from OS
             0 MiB allocation reported by mallinfo(arena+hblkhd)
           863 MiB available memory on the node where the printing process lives
------------------
     ethr =  1.52E-05,  avg # of iterations =  1.0

     negative rho (up, down):  2.154E-02 0.000E+00

     total cpu time spent up to now is        6.9 secs

     total energy              =      -1.84080259 Ry
     estimated scf accuracy    <       0.00270984 Ry

     iteration #  9     ecut=    25.00 Ry     beta= 0.70
     Davidson diagonalization with overlap

---- Real-time Memory Report at c_bands before calling an iterative solver
           406 MiB given to the printing process from OS
             0 MiB allocation reported by mallinfo(arena+hblkhd)
           849 MiB available memory on the node where the printing process lives
------------------
     ethr =  1.52E-05,  avg # of iterations =  1.0

     negative rho (up, down):  2.154E-02 0.000E+00

     total cpu time spent up to now is        7.7 secs

     total energy              =      -1.84081002 Ry
     estimated scf accuracy    <       0.00039633 Ry

     iteration # 10     ecut=    25.00 Ry     beta= 0.70
     Davidson diagonalization with overlap

---- Real-time Memory Report at c_bands before calling an iterative solver
           420 MiB given to the printing process from OS
             0 MiB allocation reported by mallinfo(arena+hblkhd)
           835 MiB available memory on the node where the printing process lives
------------------
     ethr =  1.52E-05,  avg # of iterations =  1.0

     negative rho (up, down):  2.153E-02 0.000E+00

     total cpu time spent up to now is        8.5 secs

     total energy              =      -1.84081103 Ry
     estimated scf accuracy    <       0.00057398 Ry

     iteration # 11     ecut=    25.00 Ry     beta= 0.70
     Davidson diagonalization with overlap

---- Real-time Memory Report at c_bands before calling an iterative solver
           420 MiB given to the printing process from OS
             0 MiB allocation reported by mallinfo(arena+hblkhd)
           835 MiB available memory on the node where the printing process lives
------------------
     ethr =  1.52E-05,  avg # of iterations =  1.0

     negative rho (up, down):  2.153E-02 0.000E+00

     total cpu time spent up to now is        9.2 secs

     total energy              =      -1.84081062 Ry
     estimated scf accuracy    <       0.00040951 Ry

     iteration # 12     ecut=    25.00 Ry     beta= 0.70
     Davidson diagonalization with overlap

---- Real-time Memory Report at c_bands before calling an iterative solver
           420 MiB given to the printing process from OS
             0 MiB allocation reported by mallinfo(arena+hblkhd)
           835 MiB available memory on the node where the printing process lives
------------------
     ethr =  1.52E-05,  avg # of iterations =  1.0

     negative rho (up, down):  2.153E-02 0.000E+00

     total cpu time spent up to now is       10.0 secs

     total energy              =      -1.84081218 Ry
     estimated scf accuracy    <       0.00000630 Ry

     iteration # 13     ecut=    25.00 Ry     beta= 0.70
     Davidson diagonalization with overlap

---- Real-time Memory Report at c_bands before calling an iterative solver
           420 MiB given to the printing process from OS
             0 MiB allocation reported by mallinfo(arena+hblkhd)
           835 MiB available memory on the node where the printing process lives
------------------
     ethr =  3.15E-07,  avg # of iterations =  1.0

     negative rho (up, down):  2.153E-02 0.000E+00

     total cpu time spent up to now is       10.8 secs

     total energy              =      -1.84081314 Ry
     estimated scf accuracy    <       0.00000382 Ry

     iteration # 14     ecut=    25.00 Ry     beta= 0.70
     Davidson diagonalization with overlap

---- Real-time Memory Report at c_bands before calling an iterative solver
           420 MiB given to the printing process from OS
             0 MiB allocation reported by mallinfo(arena+hblkhd)
           835 MiB available memory on the node where the printing process lives
------------------
     ethr =  1.91E-07,  avg # of iterations =  1.0

     negative rho (up, down):  2.153E-02 0.000E+00

     total cpu time spent up to now is       11.4 secs

     End of self-consistent calculation

          k =-0.5000-0.5000-0.5000 ( 57016 PWs)   bands (ev):

    -6.5700  -6.5297

     occupation numbers 
     1.0000   0.0000

     highest occupied, lowest unoccupied level (ev):    -6.5700   -6.5297

!    total energy              =      -1.84081260 Ry
     estimated scf accuracy    <          8.0E-10 Ry

     The total energy is the sum of the following terms:
     one-electron contribution =      -1.67998724 Ry
     hartree contribution      =       1.00410466 Ry
     xc contribution           =      -1.01424312 Ry
     ewald contribution        =      -0.15068690 Ry

     convergence has been achieved in  14 iterations

     Writing all to output data dir ./.save/

     init_run     :      0.73s CPU      0.78s WALL (       1 calls)
     electrons    :     10.63s CPU     10.67s WALL (       1 calls)

     Called by init_run:
     wfcinit      :      0.07s CPU      0.07s WALL (       1 calls)
     wfcinit:atom :      0.00s CPU      0.00s WALL (       1 calls)
     wfcinit:wfcr :      0.06s CPU      0.06s WALL (       1 calls)
     potinit      :      0.43s CPU      0.45s WALL (       1 calls)
     hinit0       :      0.04s CPU      0.04s WALL (       1 calls)

     Called by electrons:
     c_bands      :      1.88s CPU      1.88s WALL (      15 calls)
     sum_band     :      1.52s CPU      1.53s WALL (      15 calls)
     v_of_rho     :      5.83s CPU      5.85s WALL (      15 calls)
     v_h          :      0.38s CPU      0.38s WALL (      15 calls)
     v_xc         :      5.45s CPU      5.48s WALL (      15 calls)
     newd         :      0.47s CPU      0.47s WALL (      15 calls)
     mix_rho      :      1.20s CPU      1.21s WALL (      15 calls)

     Called by c_bands:
     init_us_2    :      0.05s CPU      0.05s WALL (      31 calls)
     init_us_2:cp :      0.05s CPU      0.05s WALL (      31 calls)
     cegterg      :      1.85s CPU      1.85s WALL (      15 calls)

     Called by sum_band:
     sum_band:wei :      0.00s CPU      0.00s WALL (      15 calls)
     sum_band:loo :      0.45s CPU      0.46s WALL (      15 calls)
     sum_band:buf :      0.00s CPU      0.00s WALL (      15 calls)
     sum_band:ini :      0.02s CPU      0.02s WALL (      15 calls)
     sum_band:cal :      0.01s CPU      0.01s WALL (      15 calls)
     sum_band:bec :      0.00s CPU      0.00s WALL (      15 calls)
     addusdens    :      0.15s CPU      0.15s WALL (      15 calls)
     addusd:skk   :      0.04s CPU      0.04s WALL (      15 calls)
     addusd:dgemm :      0.03s CPU      0.03s WALL (      15 calls)
     addusd:qvan2 :      0.04s CPU      0.04s WALL (      15 calls)

     Called by *egterg:
     cdiaghg      :      0.00s CPU      0.00s WALL (      31 calls)
     cegterg:over :      0.02s CPU      0.02s WALL (      17 calls)
     cegterg:upda :      0.01s CPU      0.01s WALL (      17 calls)
     cegterg:last :      0.01s CPU      0.01s WALL (      17 calls)
     h_psi        :      1.81s CPU      1.81s WALL (      33 calls)
     s_psi        :      0.01s CPU      0.01s WALL (      33 calls)
     g_psi        :      0.01s CPU      0.01s WALL (      17 calls)

     Called by h_psi:
     h_psi:calbec :      0.01s CPU      0.01s WALL (      33 calls)
     vloc_psi     :      1.78s CPU      1.78s WALL (      33 calls)
     add_vuspsi   :      0.01s CPU      0.01s WALL (      33 calls)

     General routines
     calbec       :      0.02s CPU      0.02s WALL (      48 calls)
     fft          :      3.18s CPU      3.18s WALL (     165 calls)
     ffts         :      0.30s CPU      0.30s WALL (      15 calls)
     fftw         :      1.96s CPU      1.96s WALL (     158 calls)


     PWSCF        :     11.40s CPU     11.51s WALL


   This run was terminated on:  22:28:52  28Feb2022            

=------------------------------------------------------------------------------=
   JOB DONE.
=------------------------------------------------------------------------------=
