
     Program PWSCF v.7.0 starts on 28Feb2022 at  2:53:39 

     This program is part of the open-source Quantum ESPRESSO suite
     for quantum simulation of materials; please cite
         "P. Giannozzi et al., J. Phys.:Condens. Matter 21 395502 (2009);
         "P. Giannozzi et al., J. Phys.:Condens. Matter 29 465901 (2017);
         "P. Giannozzi et al., J. Chem. Phys. 152 154105 (2020);
          URL http://www.quantum-espresso.org", 
     in publications or presentations arising from this work. More details at
     http://www.quantum-espresso.org/quote

     Serial version
     549 MiB available memory on the printing compute node when the environment starts

     Waiting for input...
     Reading input from standard input

     Current dimensions of program PWSCF are:
     Max number of different atomic species (ntypx) = 10
     Max number of k-points (npk) =  40000
     Max angular momentum in pseudopotentials (lmaxx) =  4

     File ./.update deleted, as requested

     File ./.bfgs deleted, as requested

    ============================================================
    |  pseudopotential report for atomic species:  1           |
    |        pseudo potential version   7   3   2              |
    ------------------------------------------------------------
    |  hydrogen            PBE                  exchange-corr  |
    |  z =   1.    zv( 1) =   1.    exfact =   5.00000         |
    |  ifpcor =  0           atomic energy =  -0.91772 Ry      |
    |  index    orbital      occupation    energy              |
    |    1        100           1.00       -0.48               |
    |  rinner =  0.5000                                        |
    |    new generation scheme:                                |
    |    nbeta =  1     kkbeta =  271     rcloc =    0.6000    |
    |    ibeta    l     epsilon   rcut                         |
    |      1       0      -0.48   0.80                         |
    ============================================================

     IMPORTANT: XC functional enforced from input :
     Exchange-correlation= BLYP
                           (   1   3   1   3   0   0   0)
     Any further DFT definition will be discarded
     Please, verify this is what you really want


     G-vector sticks info
     --------------------
     sticks:   dense  smooth     PW     G-vecs:    dense   smooth      PW
     Sum        1433    1433    421                40651    40651    6451

     Using Slab Decomposition



     bravais-lattice index     =            1
     lattice parameter (alat)  =      30.0000  a.u.
     unit-cell volume          =   27000.0000 (a.u.)^3
     number of atoms/cell      =            2
     number of atomic types    =            1
     number of electrons       =         2.00
     number of Kohn-Sham states=            2
     kinetic-energy cutoff     =       5.0000  Ry
     charge density cutoff     =      20.0000  Ry
     scf convergence threshold =      1.0E-08
     mixing beta               =       0.7000
     number of iterations used =            8  plain     mixing
     energy convergence thresh.=      1.0E-04
     force convergence thresh. =      1.0E-03
     Exchange-correlation= BLYP
                           (   1   3   1   3   0   0   0)
     nstep                     =           50


     celldm(1)=  30.000000  celldm(2)=   0.000000  celldm(3)=   0.000000
     celldm(4)=   0.000000  celldm(5)=   0.000000  celldm(6)=   0.000000

     crystal axes: (cart. coord. in units of alat)
               a(1) = (   1.000000   0.000000   0.000000 )  
               a(2) = (   0.000000   1.000000   0.000000 )  
               a(3) = (   0.000000   0.000000   1.000000 )  

     reciprocal axes: (cart. coord. in units 2 pi/alat)
               b(1) = (  1.000000  0.000000  0.000000 )  
               b(2) = (  0.000000  1.000000  0.000000 )  
               b(3) = (  0.000000  0.000000  1.000000 )  


     PseudoPot. # 1 for hy read from file:
     /root/q-e/pseudo/H_US.van
     MD5 check sum: a9a9bfe98ff56cf4de197d71fc46bb44
     Pseudo is Ultrasoft, Zval =  1.0
     Generated by Vanderbilt code, v. 7.3.2
     Using radial grid of  399 points,  1 beta functions with: 
                l(1) =   0
     Q(r) pseudized with  8 coefficients,  rinner =    0.500

     atomic species   valence    mass     pseudopotential
        H              1.00     1.00784     hy( 1.00)

      8 Sym. Ops. (no inversion) found


                                    s                        frac. trans.

      isym =  1     identity                                     

 cryst.   s( 1) = (     1          0          0      )
                  (     0          1          0      )
                  (     0          0          1      )

 cart.    s( 1) = (  1.0000000  0.0000000  0.0000000 )
                  (  0.0000000  1.0000000  0.0000000 )
                  (  0.0000000  0.0000000  1.0000000 )


      isym =  2     180 deg rotation - cart. axis [1,0,0]        

 cryst.   s( 2) = (     1          0          0      )
                  (     0         -1          0      )
                  (     0          0         -1      )

 cart.    s( 2) = (  1.0000000  0.0000000  0.0000000 )
                  (  0.0000000 -1.0000000  0.0000000 )
                  (  0.0000000  0.0000000 -1.0000000 )


      isym =  3      90 deg rotation - cart. axis [-1,0,0]       

 cryst.   s( 3) = (     1          0          0      )
                  (     0          0         -1      )
                  (     0          1          0      )

 cart.    s( 3) = (  1.0000000  0.0000000  0.0000000 )
                  (  0.0000000  0.0000000  1.0000000 )
                  (  0.0000000 -1.0000000  0.0000000 )


      isym =  4      90 deg rotation - cart. axis [1,0,0]        

 cryst.   s( 4) = (     1          0          0      )
                  (     0          0          1      )
                  (     0         -1          0      )

 cart.    s( 4) = (  1.0000000  0.0000000  0.0000000 )
                  (  0.0000000  0.0000000 -1.0000000 )
                  (  0.0000000  1.0000000  0.0000000 )


      isym =  5     inv. 180 deg rotation - cart. axis [0,0,1]   

 cryst.   s( 5) = (     1          0          0      )
                  (     0          1          0      )
                  (     0          0         -1      )

 cart.    s( 5) = (  1.0000000  0.0000000  0.0000000 )
                  (  0.0000000  1.0000000  0.0000000 )
                  (  0.0000000  0.0000000 -1.0000000 )


      isym =  6     inv. 180 deg rotation - cart. axis [0,1,0]   

 cryst.   s( 6) = (     1          0          0      )
                  (     0         -1          0      )
                  (     0          0          1      )

 cart.    s( 6) = (  1.0000000  0.0000000  0.0000000 )
                  (  0.0000000 -1.0000000  0.0000000 )
                  (  0.0000000  0.0000000  1.0000000 )


      isym =  7     inv. 180 deg rotation - cart. axis [0,1,1]   

 cryst.   s( 7) = (     1          0          0      )
                  (     0          0         -1      )
                  (     0         -1          0      )

 cart.    s( 7) = (  1.0000000  0.0000000  0.0000000 )
                  (  0.0000000  0.0000000 -1.0000000 )
                  (  0.0000000 -1.0000000  0.0000000 )


      isym =  8     inv. 180 deg rotation - cart. axis [0,1,-1]  

 cryst.   s( 8) = (     1          0          0      )
                  (     0          0          1      )
                  (     0          1          0      )

 cart.    s( 8) = (  1.0000000  0.0000000  0.0000000 )
                  (  0.0000000  0.0000000  1.0000000 )
                  (  0.0000000  1.0000000  0.0000000 )


     point group C_4v (4mm) 
     there are  5 classes
     the character table:

       E     2C4   C2    2s_v  2s_d 
A_1    1.00  1.00  1.00  1.00  1.00
A_2    1.00  1.00  1.00 -1.00 -1.00
B_1    1.00 -1.00  1.00  1.00 -1.00
B_2    1.00 -1.00  1.00 -1.00  1.00
E      2.00  0.00 -2.00  0.00  0.00

     the symmetry operations in each class and the name of the first element:

     E        1
          identity                                               
     2C4      3    4
           90 deg rotation - cart. axis [-1,0,0]                 
     C2       2
          180 deg rotation - cart. axis [1,0,0]                  
     2s_v     5    6
          inv. 180 deg rotation - cart. axis [0,0,1]             
     2s_d     7    8
          inv. 180 deg rotation - cart. axis [0,1,1]             

   Cartesian axes

     site n.     atom                  positions (alat units)
         1           H   tau(   1) = (   0.0000000   0.0000000   0.0000000  )
         2           H   tau(   2) = (   0.0440936   0.0000000   0.0000000  )

   Crystallographic axes

     site n.     atom                  positions (cryst. coord.)
         1           H   tau(   1) = (  0.0000000  0.0000000  0.0000000  )
         2           H   tau(   2) = (  0.0440936  0.0000000  0.0000000  )

     number of k points=     1
                       cart. coord. in units 2pi/alat
        k(    1) = (  -0.5000000  -0.5000000  -0.5000000), wk =   2.0000000

                       cryst. coord.
        k(    1) = (  -0.5000000  -0.5000000  -0.5000000), wk =   2.0000000

     Dense  grid:    40651 G-vectors     FFT dimensions: (  45,  45,  45)

     Dynamical RAM for                 wfc:       0.16 MB

     Dynamical RAM for     wfc (w. buffer):       0.16 MB

     Dynamical RAM for           str. fact:       0.62 MB

     Dynamical RAM for           local pot:       0.00 MB

     Dynamical RAM for          nlocal pot:       0.16 MB

     Dynamical RAM for                qrad:       0.00 MB

     Dynamical RAM for          rho,v,vnew:       3.95 MB

     Dynamical RAM for               rhoin:       1.32 MB

     Dynamical RAM for            rho*nmix:       9.92 MB

     Dynamical RAM for           G-vectors:       2.64 MB

     Dynamical RAM for          h,s,v(r/c):       0.00 MB

     Dynamical RAM for          <psi|beta>:       0.00 MB

     Dynamical RAM for                 psi:       0.31 MB

     Dynamical RAM for                hpsi:       0.31 MB

     Dynamical RAM for                spsi:       0.31 MB

     Dynamical RAM for      wfcinit/wfcrot:       0.31 MB

     Dynamical RAM for           addusdens:       3.72 MB

     Dynamical RAM for          addusforce:       5.27 MB

     Estimated static dynamical RAM per process >      13.55 MB

     Estimated max dynamical RAM per process >      28.75 MB

     Initial potential from superposition of free atoms

     starting charge       2.0000, renormalised to       2.0000

     negative rho (up, down):  4.990E-01 0.000E+00
     Starting wfcs are    2 randomized atomic wfcs

     total cpu time spent up to now is        0.1 secs

     Self-consistent Calculation

     iteration #  1     ecut=     5.00 Ry     beta= 0.70
     Davidson diagonalization with overlap

---- Real-time Memory Report at c_bands before calling an iterative solver
            38 MiB given to the printing process from OS
             0 MiB allocation reported by mallinfo(arena+hblkhd)
           531 MiB available memory on the node where the printing process lives
------------------
     ethr =  1.00E-02,  avg # of iterations =  5.0

     negative rho (up, down):  4.286E-01 0.000E+00

     total cpu time spent up to now is        0.2 secs

     total energy              =      -2.00148966 Ry
     estimated scf accuracy    <       0.03816426 Ry

     iteration #  2     ecut=     5.00 Ry     beta= 0.70
     Davidson diagonalization with overlap

---- Real-time Memory Report at c_bands before calling an iterative solver
            44 MiB given to the printing process from OS
             0 MiB allocation reported by mallinfo(arena+hblkhd)
           518 MiB available memory on the node where the printing process lives
------------------
     ethr =  1.91E-03,  avg # of iterations =  4.0

     negative rho (up, down):  3.996E-01 0.000E+00

     total cpu time spent up to now is        0.3 secs

     total energy              =      -2.01159032 Ry
     estimated scf accuracy    <       0.00236280 Ry

     iteration #  3     ecut=     5.00 Ry     beta= 0.70
     Davidson diagonalization with overlap

---- Real-time Memory Report at c_bands before calling an iterative solver
            46 MiB given to the printing process from OS
             0 MiB allocation reported by mallinfo(arena+hblkhd)
           517 MiB available memory on the node where the printing process lives
------------------
     ethr =  1.18E-04,  avg # of iterations =  6.0

     negative rho (up, down):  3.920E-01 0.000E+00

     total cpu time spent up to now is        0.3 secs

     total energy              =      -2.01438897 Ry
     estimated scf accuracy    <       0.00012767 Ry

     iteration #  4     ecut=     5.00 Ry     beta= 0.70
     Davidson diagonalization with overlap

---- Real-time Memory Report at c_bands before calling an iterative solver
            47 MiB given to the printing process from OS
             0 MiB allocation reported by mallinfo(arena+hblkhd)
           515 MiB available memory on the node where the printing process lives
------------------
     ethr =  6.38E-06,  avg # of iterations =  3.0

     negative rho (up, down):  3.881E-01 0.000E+00

     total cpu time spent up to now is        0.4 secs

     total energy              =      -2.01613412 Ry
     estimated scf accuracy    <       0.00000244 Ry

     iteration #  5     ecut=     5.00 Ry     beta= 0.70
     Davidson diagonalization with overlap

---- Real-time Memory Report at c_bands before calling an iterative solver
            48 MiB given to the printing process from OS
             0 MiB allocation reported by mallinfo(arena+hblkhd)
           514 MiB available memory on the node where the printing process lives
------------------
     ethr =  1.22E-07,  avg # of iterations =  4.0

     negative rho (up, down):  3.888E-01 0.000E+00

     total cpu time spent up to now is        0.5 secs

     total energy              =      -2.01583675 Ry
     estimated scf accuracy    <       0.00000833 Ry

     iteration #  6     ecut=     5.00 Ry     beta= 0.70
     Davidson diagonalization with overlap

---- Real-time Memory Report at c_bands before calling an iterative solver
            50 MiB given to the printing process from OS
             0 MiB allocation reported by mallinfo(arena+hblkhd)
           513 MiB available memory on the node where the printing process lives
------------------
     ethr =  1.22E-07,  avg # of iterations =  4.0

     negative rho (up, down):  3.880E-01 0.000E+00

     total cpu time spent up to now is        0.6 secs

     total energy              =      -2.01620757 Ry
     estimated scf accuracy    <       0.00001919 Ry

     iteration #  7     ecut=     5.00 Ry     beta= 0.70
     Davidson diagonalization with overlap

---- Real-time Memory Report at c_bands before calling an iterative solver
            51 MiB given to the printing process from OS
             0 MiB allocation reported by mallinfo(arena+hblkhd)
           512 MiB available memory on the node where the printing process lives
------------------
     ethr =  1.22E-07,  avg # of iterations =  4.0

     negative rho (up, down):  3.879E-01 0.000E+00

     total cpu time spent up to now is        0.6 secs

     total energy              =      -2.01657503 Ry
     estimated scf accuracy    <       0.00000683 Ry

     iteration #  8     ecut=     5.00 Ry     beta= 0.70
     Davidson diagonalization with overlap

---- Real-time Memory Report at c_bands before calling an iterative solver
            52 MiB given to the printing process from OS
             0 MiB allocation reported by mallinfo(arena+hblkhd)
           511 MiB available memory on the node where the printing process lives
------------------
     ethr =  1.22E-07,  avg # of iterations =  3.0

     negative rho (up, down):  3.883E-01 0.000E+00

     total cpu time spent up to now is        0.7 secs

     total energy              =      -2.01567049 Ry
     estimated scf accuracy    <       0.00002525 Ry

     iteration #  9     ecut=     5.00 Ry     beta= 0.70
     Davidson diagonalization with overlap

---- Real-time Memory Report at c_bands before calling an iterative solver
            53 MiB given to the printing process from OS
             0 MiB allocation reported by mallinfo(arena+hblkhd)
           509 MiB available memory on the node where the printing process lives
------------------
     ethr =  1.22E-07,  avg # of iterations =  4.0

     negative rho (up, down):  3.882E-01 0.000E+00

     total cpu time spent up to now is        0.8 secs

     total energy              =      -2.01623991 Ry
     estimated scf accuracy    <       0.00000131 Ry

     iteration # 10     ecut=     5.00 Ry     beta= 0.70
     Davidson diagonalization with overlap

---- Real-time Memory Report at c_bands before calling an iterative solver
            54 MiB given to the printing process from OS
             0 MiB allocation reported by mallinfo(arena+hblkhd)
           508 MiB available memory on the node where the printing process lives
------------------
     ethr =  6.56E-08,  avg # of iterations =  3.0

     negative rho (up, down):  3.877E-01 0.000E+00

     total cpu time spent up to now is        0.9 secs

     total energy              =      -2.01644186 Ry
     estimated scf accuracy    <       0.00000086 Ry

     iteration # 11     ecut=     5.00 Ry     beta= 0.70
     Davidson diagonalization with overlap

---- Real-time Memory Report at c_bands before calling an iterative solver
            54 MiB given to the printing process from OS
             0 MiB allocation reported by mallinfo(arena+hblkhd)
           508 MiB available memory on the node where the printing process lives
------------------
     ethr =  4.31E-08,  avg # of iterations =  3.0

     negative rho (up, down):  3.877E-01 0.000E+00

     total cpu time spent up to now is        0.9 secs

     total energy              =      -2.01631138 Ry
     estimated scf accuracy    <       0.00000142 Ry

     iteration # 12     ecut=     5.00 Ry     beta= 0.70
     Davidson diagonalization with overlap

---- Real-time Memory Report at c_bands before calling an iterative solver
            54 MiB given to the printing process from OS
             0 MiB allocation reported by mallinfo(arena+hblkhd)
           508 MiB available memory on the node where the printing process lives
------------------
     ethr =  4.31E-08,  avg # of iterations =  4.0

     negative rho (up, down):  3.878E-01 0.000E+00

     total cpu time spent up to now is        1.0 secs

     total energy              =      -2.01637589 Ry
     estimated scf accuracy    <       0.00000387 Ry

     iteration # 13     ecut=     5.00 Ry     beta= 0.70
     Davidson diagonalization with overlap

---- Real-time Memory Report at c_bands before calling an iterative solver
            54 MiB given to the printing process from OS
             0 MiB allocation reported by mallinfo(arena+hblkhd)
           508 MiB available memory on the node where the printing process lives
------------------
     ethr =  4.31E-08,  avg # of iterations =  4.0

     negative rho (up, down):  3.879E-01 0.000E+00

     total cpu time spent up to now is        1.1 secs

     total energy              =      -2.01628387 Ry
     estimated scf accuracy    <       0.00000092 Ry

     iteration # 14     ecut=     5.00 Ry     beta= 0.70
     Davidson diagonalization with overlap

---- Real-time Memory Report at c_bands before calling an iterative solver
            54 MiB given to the printing process from OS
             0 MiB allocation reported by mallinfo(arena+hblkhd)
           508 MiB available memory on the node where the printing process lives
------------------
     ethr =  4.31E-08,  avg # of iterations =  4.0

     negative rho (up, down):  3.879E-01 0.000E+00

     total cpu time spent up to now is        1.2 secs

     total energy              =      -2.01651142 Ry
     estimated scf accuracy    <       0.00004038 Ry

     iteration # 15     ecut=     5.00 Ry     beta= 0.70
     Davidson diagonalization with overlap

---- Real-time Memory Report at c_bands before calling an iterative solver
            54 MiB given to the printing process from OS
             0 MiB allocation reported by mallinfo(arena+hblkhd)
           508 MiB available memory on the node where the printing process lives
------------------
     ethr =  4.31E-08,  avg # of iterations =  2.0

     negative rho (up, down):  3.880E-01 0.000E+00

     total cpu time spent up to now is        1.2 secs

     total energy              =      -2.01623068 Ry
     estimated scf accuracy    <       0.00003725 Ry

     iteration # 16     ecut=     5.00 Ry     beta= 0.70
     Davidson diagonalization with overlap

---- Real-time Memory Report at c_bands before calling an iterative solver
            54 MiB given to the printing process from OS
             0 MiB allocation reported by mallinfo(arena+hblkhd)
           508 MiB available memory on the node where the printing process lives
------------------
     ethr =  4.31E-08,  avg # of iterations =  4.0

     negative rho (up, down):  3.880E-01 0.000E+00

     total cpu time spent up to now is        1.3 secs

     total energy              =      -2.01627996 Ry
     estimated scf accuracy    <       0.00000698 Ry

     iteration # 17     ecut=     5.00 Ry     beta= 0.70
     Davidson diagonalization with overlap

---- Real-time Memory Report at c_bands before calling an iterative solver
            54 MiB given to the printing process from OS
             0 MiB allocation reported by mallinfo(arena+hblkhd)
           508 MiB available memory on the node where the printing process lives
------------------
     ethr =  4.31E-08,  avg # of iterations =  3.0

     negative rho (up, down):  3.880E-01 0.000E+00

     total cpu time spent up to now is        1.4 secs

     total energy              =      -2.01640654 Ry
     estimated scf accuracy    <       0.00000237 Ry

     iteration # 18     ecut=     5.00 Ry     beta= 0.70
     Davidson diagonalization with overlap

---- Real-time Memory Report at c_bands before calling an iterative solver
            54 MiB given to the printing process from OS
             0 MiB allocation reported by mallinfo(arena+hblkhd)
           508 MiB available memory on the node where the printing process lives
------------------
     ethr =  4.31E-08,  avg # of iterations =  4.0

     negative rho (up, down):  3.880E-01 0.000E+00

     total cpu time spent up to now is        1.5 secs

     total energy              =      -2.01635894 Ry
     estimated scf accuracy    <       0.00001177 Ry

     iteration # 19     ecut=     5.00 Ry     beta= 0.70
     Davidson diagonalization with overlap

---- Real-time Memory Report at c_bands before calling an iterative solver
            54 MiB given to the printing process from OS
             0 MiB allocation reported by mallinfo(arena+hblkhd)
           508 MiB available memory on the node where the printing process lives
------------------
     ethr =  4.31E-08,  avg # of iterations =  3.0

     negative rho (up, down):  3.879E-01 0.000E+00

     total cpu time spent up to now is        1.5 secs

     total energy              =      -2.01630106 Ry
     estimated scf accuracy    <       0.00000588 Ry

     iteration # 20     ecut=     5.00 Ry     beta= 0.70
     Davidson diagonalization with overlap

---- Real-time Memory Report at c_bands before calling an iterative solver
            54 MiB given to the printing process from OS
             0 MiB allocation reported by mallinfo(arena+hblkhd)
           508 MiB available memory on the node where the printing process lives
------------------
     ethr =  4.31E-08,  avg # of iterations =  4.0

     negative rho (up, down):  3.879E-01 0.000E+00

     total cpu time spent up to now is        1.6 secs

     total energy              =      -2.01637406 Ry
     estimated scf accuracy    <       0.00000031 Ry

     iteration # 21     ecut=     5.00 Ry     beta= 0.70
     Davidson diagonalization with overlap

---- Real-time Memory Report at c_bands before calling an iterative solver
            54 MiB given to the printing process from OS
             0 MiB allocation reported by mallinfo(arena+hblkhd)
           508 MiB available memory on the node where the printing process lives
------------------
     ethr =  1.57E-08,  avg # of iterations =  3.0

     negative rho (up, down):  3.879E-01 0.000E+00

     total cpu time spent up to now is        1.7 secs

     total energy              =      -2.01642123 Ry
     estimated scf accuracy    <       0.00000160 Ry

     iteration # 22     ecut=     5.00 Ry     beta= 0.70
     Davidson diagonalization with overlap

---- Real-time Memory Report at c_bands before calling an iterative solver
            54 MiB given to the printing process from OS
             0 MiB allocation reported by mallinfo(arena+hblkhd)
           508 MiB available memory on the node where the printing process lives
------------------
     ethr =  1.57E-08,  avg # of iterations =  5.0

     negative rho (up, down):  3.879E-01 0.000E+00

     total cpu time spent up to now is        1.8 secs

     total energy              =      -2.01621271 Ry
     estimated scf accuracy    <       0.00003952 Ry

     iteration # 23     ecut=     5.00 Ry     beta= 0.70
     Davidson diagonalization with overlap

---- Real-time Memory Report at c_bands before calling an iterative solver
            54 MiB given to the printing process from OS
             0 MiB allocation reported by mallinfo(arena+hblkhd)
           508 MiB available memory on the node where the printing process lives
------------------
     ethr =  1.57E-08,  avg # of iterations =  4.0

     negative rho (up, down):  3.879E-01 0.000E+00

     total cpu time spent up to now is        1.8 secs

     total energy              =      -2.01636715 Ry
     estimated scf accuracy    <       0.00001997 Ry

     iteration # 24     ecut=     5.00 Ry     beta= 0.70
     Davidson diagonalization with overlap

---- Real-time Memory Report at c_bands before calling an iterative solver
            54 MiB given to the printing process from OS
             0 MiB allocation reported by mallinfo(arena+hblkhd)
           508 MiB available memory on the node where the printing process lives
------------------
     ethr =  1.57E-08,  avg # of iterations =  3.0

     negative rho (up, down):  3.879E-01 0.000E+00

     total cpu time spent up to now is        1.9 secs

     total energy              =      -2.01633826 Ry
     estimated scf accuracy    <       0.00001660 Ry

     iteration # 25     ecut=     5.00 Ry     beta= 0.70
     Davidson diagonalization with overlap

---- Real-time Memory Report at c_bands before calling an iterative solver
            54 MiB given to the printing process from OS
             0 MiB allocation reported by mallinfo(arena+hblkhd)
           508 MiB available memory on the node where the printing process lives
------------------
     ethr =  1.57E-08,  avg # of iterations =  3.0

     negative rho (up, down):  3.879E-01 0.000E+00

     total cpu time spent up to now is        2.0 secs

     total energy              =      -2.01634421 Ry
     estimated scf accuracy    <       0.00001144 Ry

     iteration # 26     ecut=     5.00 Ry     beta= 0.70
     Davidson diagonalization with overlap

---- Real-time Memory Report at c_bands before calling an iterative solver
            54 MiB given to the printing process from OS
             0 MiB allocation reported by mallinfo(arena+hblkhd)
           508 MiB available memory on the node where the printing process lives
------------------
     ethr =  1.57E-08,  avg # of iterations =  2.0

     negative rho (up, down):  3.878E-01 0.000E+00

     total cpu time spent up to now is        2.1 secs

     total energy              =      -2.01648001 Ry
     estimated scf accuracy    <       0.00001129 Ry

     iteration # 27     ecut=     5.00 Ry     beta= 0.70
     Davidson diagonalization with overlap

---- Real-time Memory Report at c_bands before calling an iterative solver
            54 MiB given to the printing process from OS
             0 MiB allocation reported by mallinfo(arena+hblkhd)
           508 MiB available memory on the node where the printing process lives
------------------
     ethr =  1.57E-08,  avg # of iterations =  3.0

     negative rho (up, down):  3.878E-01 0.000E+00

     total cpu time spent up to now is        2.1 secs

     total energy              =      -2.01652394 Ry
     estimated scf accuracy    <       0.00000888 Ry

     iteration # 28     ecut=     5.00 Ry     beta= 0.70
     Davidson diagonalization with overlap

---- Real-time Memory Report at c_bands before calling an iterative solver
            54 MiB given to the printing process from OS
             0 MiB allocation reported by mallinfo(arena+hblkhd)
           508 MiB available memory on the node where the printing process lives
------------------
     ethr =  1.57E-08,  avg # of iterations =  2.0

     negative rho (up, down):  3.878E-01 0.000E+00

     total cpu time spent up to now is        2.2 secs

     total energy              =      -2.01622912 Ry
     estimated scf accuracy    <       0.00000821 Ry

     iteration # 29     ecut=     5.00 Ry     beta= 0.70
     Davidson diagonalization with overlap

---- Real-time Memory Report at c_bands before calling an iterative solver
            54 MiB given to the printing process from OS
             0 MiB allocation reported by mallinfo(arena+hblkhd)
           508 MiB available memory on the node where the printing process lives
------------------
     ethr =  1.57E-08,  avg # of iterations =  4.0

     negative rho (up, down):  3.877E-01 0.000E+00

     total cpu time spent up to now is        2.3 secs

     total energy              =      -2.01643167 Ry
     estimated scf accuracy    <       0.00000013 Ry

     iteration # 30     ecut=     5.00 Ry     beta= 0.70
     Davidson diagonalization with overlap

---- Real-time Memory Report at c_bands before calling an iterative solver
            54 MiB given to the printing process from OS
             0 MiB allocation reported by mallinfo(arena+hblkhd)
           508 MiB available memory on the node where the printing process lives
------------------
     ethr =  6.38E-09,  avg # of iterations =  3.0

     negative rho (up, down):  3.877E-01 0.000E+00

     total cpu time spent up to now is        2.4 secs

     total energy              =      -2.01644528 Ry
     estimated scf accuracy    <       0.00000040 Ry

     iteration # 31     ecut=     5.00 Ry     beta= 0.70
     Davidson diagonalization with overlap

---- Real-time Memory Report at c_bands before calling an iterative solver
            54 MiB given to the printing process from OS
             0 MiB allocation reported by mallinfo(arena+hblkhd)
           508 MiB available memory on the node where the printing process lives
------------------
     ethr =  6.38E-09,  avg # of iterations =  3.0

     negative rho (up, down):  3.877E-01 0.000E+00

     total cpu time spent up to now is        2.4 secs

     total energy              =      -2.01644960 Ry
     estimated scf accuracy    <       0.00000010 Ry

     iteration # 32     ecut=     5.00 Ry     beta= 0.70
     Davidson diagonalization with overlap

---- Real-time Memory Report at c_bands before calling an iterative solver
            54 MiB given to the printing process from OS
             0 MiB allocation reported by mallinfo(arena+hblkhd)
           508 MiB available memory on the node where the printing process lives
------------------
     ethr =  4.79E-09,  avg # of iterations =  3.0

     negative rho (up, down):  3.878E-01 0.000E+00

     total cpu time spent up to now is        2.5 secs

     total energy              =      -2.01643347 Ry
     estimated scf accuracy    <       0.00000002 Ry

     iteration # 33     ecut=     5.00 Ry     beta= 0.70
     Davidson diagonalization with overlap

---- Real-time Memory Report at c_bands before calling an iterative solver
            54 MiB given to the printing process from OS
             0 MiB allocation reported by mallinfo(arena+hblkhd)
           508 MiB available memory on the node where the printing process lives
------------------
     ethr =  9.77E-10,  avg # of iterations =  4.0

     negative rho (up, down):  3.877E-01 0.000E+00

     total cpu time spent up to now is        2.6 secs

     total energy              =      -2.01643678 Ry
     estimated scf accuracy    <       0.00000186 Ry

     iteration # 34     ecut=     5.00 Ry     beta= 0.70
     Davidson diagonalization with overlap

---- Real-time Memory Report at c_bands before calling an iterative solver
            54 MiB given to the printing process from OS
             0 MiB allocation reported by mallinfo(arena+hblkhd)
           508 MiB available memory on the node where the printing process lives
------------------
     ethr =  9.77E-10,  avg # of iterations =  4.0

     negative rho (up, down):  3.877E-01 0.000E+00

     total cpu time spent up to now is        2.6 secs

     total energy              =      -2.01646485 Ry
     estimated scf accuracy    <       0.00000002 Ry

     iteration # 35     ecut=     5.00 Ry     beta= 0.70
     Davidson diagonalization with overlap

---- Real-time Memory Report at c_bands before calling an iterative solver
            54 MiB given to the printing process from OS
             0 MiB allocation reported by mallinfo(arena+hblkhd)
           508 MiB available memory on the node where the printing process lives
------------------
     ethr =  8.34E-10,  avg # of iterations =  4.0

     negative rho (up, down):  3.877E-01 0.000E+00

     total cpu time spent up to now is        2.7 secs

     total energy              =      -2.01645724 Ry
     estimated scf accuracy    <       0.00000012 Ry

     iteration # 36     ecut=     5.00 Ry     beta= 0.70
     Davidson diagonalization with overlap

---- Real-time Memory Report at c_bands before calling an iterative solver
            54 MiB given to the printing process from OS
             0 MiB allocation reported by mallinfo(arena+hblkhd)
           508 MiB available memory on the node where the printing process lives
------------------
     ethr =  8.34E-10,  avg # of iterations =  3.0

     negative rho (up, down):  3.876E-01 0.000E+00

     total cpu time spent up to now is        2.8 secs

     total energy              =      -2.01647029 Ry
     estimated scf accuracy    <       0.00000002 Ry

     iteration # 37     ecut=     5.00 Ry     beta= 0.70
     Davidson diagonalization with overlap

---- Real-time Memory Report at c_bands before calling an iterative solver
            54 MiB given to the printing process from OS
             0 MiB allocation reported by mallinfo(arena+hblkhd)
           508 MiB available memory on the node where the printing process lives
------------------
     ethr =  8.18E-10,  avg # of iterations =  4.0

     negative rho (up, down):  3.876E-01 0.000E+00

     total cpu time spent up to now is        2.9 secs

     total energy              =      -2.01646843 Ry
     estimated scf accuracy    <       0.00000050 Ry

     iteration # 38     ecut=     5.00 Ry     beta= 0.70
     Davidson diagonalization with overlap

---- Real-time Memory Report at c_bands before calling an iterative solver
            54 MiB given to the printing process from OS
             0 MiB allocation reported by mallinfo(arena+hblkhd)
           508 MiB available memory on the node where the printing process lives
------------------
     ethr =  8.18E-10,  avg # of iterations =  2.0

     negative rho (up, down):  3.877E-01 0.000E+00

     total cpu time spent up to now is        2.9 secs

     total energy              =      -2.01645691 Ry
     estimated scf accuracy    <       0.00000050 Ry

     iteration # 39     ecut=     5.00 Ry     beta= 0.70
     Davidson diagonalization with overlap

---- Real-time Memory Report at c_bands before calling an iterative solver
            54 MiB given to the printing process from OS
             0 MiB allocation reported by mallinfo(arena+hblkhd)
           508 MiB available memory on the node where the printing process lives
------------------
     ethr =  8.18E-10,  avg # of iterations =  3.0

     negative rho (up, down):  3.877E-01 0.000E+00

     total cpu time spent up to now is        3.0 secs

     total energy              =      -2.01644837 Ry
     estimated scf accuracy    <       0.00000026 Ry

     iteration # 40     ecut=     5.00 Ry     beta= 0.70
     Davidson diagonalization with overlap

---- Real-time Memory Report at c_bands before calling an iterative solver
            54 MiB given to the printing process from OS
             0 MiB allocation reported by mallinfo(arena+hblkhd)
           508 MiB available memory on the node where the printing process lives
------------------
     ethr =  8.18E-10,  avg # of iterations =  4.0

     negative rho (up, down):  3.877E-01 0.000E+00

     total cpu time spent up to now is        3.1 secs

     total energy              =      -2.01644354 Ry
     estimated scf accuracy    <       0.00000002 Ry

     iteration # 41     ecut=     5.00 Ry     beta= 0.70
     Davidson diagonalization with overlap

---- Real-time Memory Report at c_bands before calling an iterative solver
            54 MiB given to the printing process from OS
             0 MiB allocation reported by mallinfo(arena+hblkhd)
           508 MiB available memory on the node where the printing process lives
------------------
     ethr =  8.18E-10,  avg # of iterations =  3.0

     negative rho (up, down):  3.878E-01 0.000E+00

     total cpu time spent up to now is        3.2 secs

     total energy              =      -2.01643583 Ry
     estimated scf accuracy    <       0.00000001 Ry

     iteration # 42     ecut=     5.00 Ry     beta= 0.70
     Davidson diagonalization with overlap

---- Real-time Memory Report at c_bands before calling an iterative solver
            54 MiB given to the printing process from OS
             0 MiB allocation reported by mallinfo(arena+hblkhd)
           508 MiB available memory on the node where the printing process lives
------------------
     ethr =  5.40E-10,  avg # of iterations =  4.0

     negative rho (up, down):  3.877E-01 0.000E+00

     total cpu time spent up to now is        3.2 secs

     total energy              =      -2.01644231 Ry
     estimated scf accuracy    <       0.00000026 Ry

     iteration # 43     ecut=     5.00 Ry     beta= 0.70
     Davidson diagonalization with overlap

---- Real-time Memory Report at c_bands before calling an iterative solver
            54 MiB given to the printing process from OS
             0 MiB allocation reported by mallinfo(arena+hblkhd)
           508 MiB available memory on the node where the printing process lives
------------------
     ethr =  5.40E-10,  avg # of iterations =  4.0

     negative rho (up, down):  3.877E-01 0.000E+00

     total cpu time spent up to now is        3.3 secs

     End of self-consistent calculation

          k =-0.5000-0.5000-0.5000 (  5040 PWs)   bands (ev):

   -10.7081  -1.4021

     occupation numbers 
     1.0000   0.0000

     highest occupied, lowest unoccupied level (ev):   -10.7081   -1.4021

!    total energy              =      -2.01645081 Ry
     estimated scf accuracy    <          2.9E-09 Ry

     The total energy is the sum of the following terms:
     one-electron contribution =      -3.95254809 Ry
     hartree contribution      =       2.08344443 Ry
     xc contribution           =      -1.28124795 Ry
     ewald contribution        =       1.13390080 Ry

     convergence has been achieved in  43 iterations

     Forces acting on atoms (cartesian axes, Ry/au):

     atom    1 type  1   force =    -0.37557495    0.00000000    0.00000000
     atom    2 type  1   force =     0.37557495    0.00000000    0.00000000
     The non-local contrib.  to forces
     atom    1 type  1   force =     0.05213273    0.00000000    0.00000000
     atom    2 type  1   force =    -0.05624630    0.00000000    0.00000000
     The ionic contribution  to forces
     atom    1 type  1   force =    -1.14256075   -0.00000000   -0.00000000
     atom    2 type  1   force =     1.14256075    0.00000000   -0.00000000
     The local contribution  to forces
     atom    1 type  1   force =     0.71285766    0.00000000    0.00000000
     atom    2 type  1   force =    -0.71329919    0.00000000    0.00000000
     The core correction contribution to forces
     atom    1 type  1   force =     0.00000000    0.00000000    0.00000000
     atom    2 type  1   force =     0.00000000    0.00000000    0.00000000
     The Hubbard contrib.    to forces
     atom    1 type  1   force =     0.00000000    0.00000000    0.00000000
     atom    2 type  1   force =     0.00000000    0.00000000    0.00000000
     The SCF correction term to forces
     atom    1 type  1   force =    -0.00019210    0.00000000   -0.00000000
     atom    2 type  1   force =     0.00037219    0.00000000   -0.00000000

     Total force =     0.531143     Total SCF correction =     0.000419

     BFGS Geometry Optimization
     Energy error            =      0.0E+00 Ry
     Gradient error          =      3.8E-01 Ry/Bohr

     number of scf cycles    =   1
     number of bfgs steps    =   0

     energy             new  =      -2.0164508125 Ry

     new trust radius        =       0.3755749528 bohr
     new conv_thr            =       0.0000000100 Ry


ATOMIC_POSITIONS (angstrom)
H            -0.1987457060        0.0000000000        0.0000000000
H             0.8987457060        0.0000000000        0.0000000000



     Writing config-only to output data dir ./.save/
     NEW-OLD atomic charge density approx. for the potential

     negative rho (up, down):  4.632E-01 0.000E+00

     total cpu time spent up to now is        3.4 secs

     Self-consistent Calculation

     iteration #  1     ecut=     5.00 Ry     beta= 0.70
     Davidson diagonalization with overlap

---- Real-time Memory Report at c_bands before calling an iterative solver
            55 MiB given to the printing process from OS
             0 MiB allocation reported by mallinfo(arena+hblkhd)
           543 MiB available memory on the node where the printing process lives
------------------
     ethr =  1.00E-06,  avg # of iterations = 15.0

     negative rho (up, down):  3.177E-01 0.000E+00

     total cpu time spent up to now is        3.5 secs

     total energy              =      -2.03354310 Ry
     estimated scf accuracy    <       0.01029357 Ry

     iteration #  2     ecut=     5.00 Ry     beta= 0.70
     Davidson diagonalization with overlap

---- Real-time Memory Report at c_bands before calling an iterative solver
            55 MiB given to the printing process from OS
             0 MiB allocation reported by mallinfo(arena+hblkhd)
           532 MiB available memory on the node where the printing process lives
------------------
     ethr =  5.15E-04,  avg # of iterations =  2.0

     negative rho (up, down):  2.874E-01 0.000E+00

     total cpu time spent up to now is        3.6 secs

     total energy              =      -2.04830011 Ry
     estimated scf accuracy    <       0.00027618 Ry

     iteration #  3     ecut=     5.00 Ry     beta= 0.70
     Davidson diagonalization with overlap

---- Real-time Memory Report at c_bands before calling an iterative solver
            55 MiB given to the printing process from OS
             0 MiB allocation reported by mallinfo(arena+hblkhd)
           531 MiB available memory on the node where the printing process lives
------------------
     ethr =  1.38E-05,  avg # of iterations =  6.0

     negative rho (up, down):  2.757E-01 0.000E+00

     total cpu time spent up to now is        3.6 secs

     total energy              =      -2.05303645 Ry
     estimated scf accuracy    <       0.00002284 Ry

     iteration #  4     ecut=     5.00 Ry     beta= 0.70
     Davidson diagonalization with overlap

---- Real-time Memory Report at c_bands before calling an iterative solver
            55 MiB given to the printing process from OS
             0 MiB allocation reported by mallinfo(arena+hblkhd)
           530 MiB available memory on the node where the printing process lives
------------------
     ethr =  1.14E-06,  avg # of iterations =  7.0

     negative rho (up, down):  2.755E-01 0.000E+00

     total cpu time spent up to now is        3.7 secs

     total energy              =      -2.05312619 Ry
     estimated scf accuracy    <       0.00000054 Ry

     iteration #  5     ecut=     5.00 Ry     beta= 0.70
     Davidson diagonalization with overlap

---- Real-time Memory Report at c_bands before calling an iterative solver
            55 MiB given to the printing process from OS
             0 MiB allocation reported by mallinfo(arena+hblkhd)
           528 MiB available memory on the node where the printing process lives
------------------
     ethr =  2.68E-08,  avg # of iterations =  2.0

     negative rho (up, down):  2.754E-01 0.000E+00

     total cpu time spent up to now is        3.8 secs

     total energy              =      -2.05316949 Ry
     estimated scf accuracy    <       0.00000013 Ry

     iteration #  6     ecut=     5.00 Ry     beta= 0.70
     Davidson diagonalization with overlap

---- Real-time Memory Report at c_bands before calling an iterative solver
            55 MiB given to the printing process from OS
             0 MiB allocation reported by mallinfo(arena+hblkhd)
           527 MiB available memory on the node where the printing process lives
------------------
     ethr =  6.65E-09,  avg # of iterations =  3.0

     negative rho (up, down):  2.754E-01 0.000E+00

     total cpu time spent up to now is        3.9 secs

     total energy              =      -2.05319169 Ry
     estimated scf accuracy    <       0.00000007 Ry

     iteration #  7     ecut=     5.00 Ry     beta= 0.70
     Davidson diagonalization with overlap

---- Real-time Memory Report at c_bands before calling an iterative solver
            55 MiB given to the printing process from OS
             0 MiB allocation reported by mallinfo(arena+hblkhd)
           526 MiB available memory on the node where the printing process lives
------------------
     ethr =  3.49E-09,  avg # of iterations =  2.0

     negative rho (up, down):  2.754E-01 0.000E+00

     total cpu time spent up to now is        3.9 secs

     total energy              =      -2.05315608 Ry
     estimated scf accuracy    <       0.00000004 Ry

     iteration #  8     ecut=     5.00 Ry     beta= 0.70
     Davidson diagonalization with overlap

---- Real-time Memory Report at c_bands before calling an iterative solver
            55 MiB given to the printing process from OS
             0 MiB allocation reported by mallinfo(arena+hblkhd)
           525 MiB available memory on the node where the printing process lives
------------------
     ethr =  1.95E-09,  avg # of iterations =  4.0

     negative rho (up, down):  2.754E-01 0.000E+00

     total cpu time spent up to now is        4.0 secs

     total energy              =      -2.05315396 Ry
     estimated scf accuracy    <       0.00000046 Ry

     iteration #  9     ecut=     5.00 Ry     beta= 0.70
     Davidson diagonalization with overlap

---- Real-time Memory Report at c_bands before calling an iterative solver
            55 MiB given to the printing process from OS
             0 MiB allocation reported by mallinfo(arena+hblkhd)
           523 MiB available memory on the node where the printing process lives
------------------
     ethr =  1.95E-09,  avg # of iterations =  4.0

     negative rho (up, down):  2.754E-01 0.000E+00

     total cpu time spent up to now is        4.1 secs

     total energy              =      -2.05316019 Ry
     estimated scf accuracy    <       0.00000016 Ry

     iteration # 10     ecut=     5.00 Ry     beta= 0.70
     Davidson diagonalization with overlap

---- Real-time Memory Report at c_bands before calling an iterative solver
            56 MiB given to the printing process from OS
             0 MiB allocation reported by mallinfo(arena+hblkhd)
           522 MiB available memory on the node where the printing process lives
------------------
     ethr =  1.95E-09,  avg # of iterations =  2.0

     negative rho (up, down):  2.754E-01 0.000E+00

     total cpu time spent up to now is        4.1 secs

     total energy              =      -2.05316323 Ry
     estimated scf accuracy    <       0.00000016 Ry

     iteration # 11     ecut=     5.00 Ry     beta= 0.70
     Davidson diagonalization with overlap

---- Real-time Memory Report at c_bands before calling an iterative solver
            56 MiB given to the printing process from OS
             0 MiB allocation reported by mallinfo(arena+hblkhd)
           522 MiB available memory on the node where the printing process lives
------------------
     ethr =  1.95E-09,  avg # of iterations =  3.0

     negative rho (up, down):  2.754E-01 0.000E+00

     total cpu time spent up to now is        4.2 secs

     total energy              =      -2.05316001 Ry
     estimated scf accuracy    <       0.00000022 Ry

     iteration # 12     ecut=     5.00 Ry     beta= 0.70
     Davidson diagonalization with overlap

---- Real-time Memory Report at c_bands before calling an iterative solver
            56 MiB given to the printing process from OS
             0 MiB allocation reported by mallinfo(arena+hblkhd)
           522 MiB available memory on the node where the printing process lives
------------------
     ethr =  1.95E-09,  avg # of iterations =  3.0

     negative rho (up, down):  2.754E-01 0.000E+00

     total cpu time spent up to now is        4.3 secs

     total energy              =      -2.05315746 Ry
     estimated scf accuracy    <       0.00000017 Ry

     iteration # 13     ecut=     5.00 Ry     beta= 0.70
     Davidson diagonalization with overlap

---- Real-time Memory Report at c_bands before calling an iterative solver
            56 MiB given to the printing process from OS
             0 MiB allocation reported by mallinfo(arena+hblkhd)
           522 MiB available memory on the node where the printing process lives
------------------
     ethr =  1.95E-09,  avg # of iterations =  3.0

     negative rho (up, down):  2.754E-01 0.000E+00

     total cpu time spent up to now is        4.4 secs

     total energy              =      -2.05315641 Ry
     estimated scf accuracy    <       0.00000011 Ry

     iteration # 14     ecut=     5.00 Ry     beta= 0.70
     Davidson diagonalization with overlap

---- Real-time Memory Report at c_bands before calling an iterative solver
            56 MiB given to the printing process from OS
             0 MiB allocation reported by mallinfo(arena+hblkhd)
           522 MiB available memory on the node where the printing process lives
------------------
     ethr =  1.95E-09,  avg # of iterations =  2.0

     negative rho (up, down):  2.754E-01 0.000E+00

     total cpu time spent up to now is        4.4 secs

     total energy              =      -2.05317426 Ry
     estimated scf accuracy    <       0.00000011 Ry

     iteration # 15     ecut=     5.00 Ry     beta= 0.70
     Davidson diagonalization with overlap

---- Real-time Memory Report at c_bands before calling an iterative solver
            56 MiB given to the printing process from OS
             0 MiB allocation reported by mallinfo(arena+hblkhd)
           522 MiB available memory on the node where the printing process lives
------------------
     ethr =  1.95E-09,  avg # of iterations =  4.0

     negative rho (up, down):  2.754E-01 0.000E+00

     total cpu time spent up to now is        4.5 secs

     total energy              =      -2.05314924 Ry
     estimated scf accuracy    <       0.00000008 Ry

     iteration # 16     ecut=     5.00 Ry     beta= 0.70
     Davidson diagonalization with overlap

---- Real-time Memory Report at c_bands before calling an iterative solver
            56 MiB given to the printing process from OS
             0 MiB allocation reported by mallinfo(arena+hblkhd)
           522 MiB available memory on the node where the printing process lives
------------------
     ethr =  1.95E-09,  avg # of iterations =  4.0

     negative rho (up, down):  2.754E-01 0.000E+00

     total cpu time spent up to now is        4.6 secs

     total energy              =      -2.05318655 Ry
     estimated scf accuracy    <       0.00000019 Ry

     iteration # 17     ecut=     5.00 Ry     beta= 0.70
     Davidson diagonalization with overlap

---- Real-time Memory Report at c_bands before calling an iterative solver
            56 MiB given to the printing process from OS
             0 MiB allocation reported by mallinfo(arena+hblkhd)
           522 MiB available memory on the node where the printing process lives
------------------
     ethr =  1.95E-09,  avg # of iterations =  4.0

     negative rho (up, down):  2.754E-01 0.000E+00

     total cpu time spent up to now is        4.7 secs

     total energy              =      -2.05319202 Ry
     estimated scf accuracy    <       0.00000015 Ry

     iteration # 18     ecut=     5.00 Ry     beta= 0.70
     Davidson diagonalization with overlap

---- Real-time Memory Report at c_bands before calling an iterative solver
            56 MiB given to the printing process from OS
             0 MiB allocation reported by mallinfo(arena+hblkhd)
           522 MiB available memory on the node where the printing process lives
------------------
     ethr =  1.95E-09,  avg # of iterations =  2.0

     negative rho (up, down):  2.754E-01 0.000E+00

     total cpu time spent up to now is        4.7 secs

     total energy              =      -2.05315413 Ry
     estimated scf accuracy    <       0.00000013 Ry

     iteration # 19     ecut=     5.00 Ry     beta= 0.70
     Davidson diagonalization with overlap

---- Real-time Memory Report at c_bands before calling an iterative solver
            56 MiB given to the printing process from OS
             0 MiB allocation reported by mallinfo(arena+hblkhd)
           522 MiB available memory on the node where the printing process lives
------------------
     ethr =  1.95E-09,  avg # of iterations =  4.0

     negative rho (up, down):  2.754E-01 0.000E+00

     total cpu time spent up to now is        4.8 secs

     total energy              =      -2.05317120 Ry
     estimated scf accuracy    <       0.00000057 Ry

     iteration # 20     ecut=     5.00 Ry     beta= 0.70
     Davidson diagonalization with overlap

---- Real-time Memory Report at c_bands before calling an iterative solver
            56 MiB given to the printing process from OS
             0 MiB allocation reported by mallinfo(arena+hblkhd)
           522 MiB available memory on the node where the printing process lives
------------------
     ethr =  1.95E-09,  avg # of iterations =  3.0

     negative rho (up, down):  2.754E-01 0.000E+00

     total cpu time spent up to now is        4.9 secs

     total energy              =      -2.05316087 Ry
     estimated scf accuracy    <       0.00000036 Ry

     iteration # 21     ecut=     5.00 Ry     beta= 0.70
     Davidson diagonalization with overlap

---- Real-time Memory Report at c_bands before calling an iterative solver
            56 MiB given to the printing process from OS
             0 MiB allocation reported by mallinfo(arena+hblkhd)
           522 MiB available memory on the node where the printing process lives
------------------
     ethr =  1.95E-09,  avg # of iterations =  3.0

     negative rho (up, down):  2.754E-01 0.000E+00

     total cpu time spent up to now is        4.9 secs

     total energy              =      -2.05316763 Ry
     estimated scf accuracy    <       0.00000032 Ry

     iteration # 22     ecut=     5.00 Ry     beta= 0.70
     Davidson diagonalization with overlap

---- Real-time Memory Report at c_bands before calling an iterative solver
            56 MiB given to the printing process from OS
             0 MiB allocation reported by mallinfo(arena+hblkhd)
           522 MiB available memory on the node where the printing process lives
------------------
     ethr =  1.95E-09,  avg # of iterations =  4.0

     negative rho (up, down):  2.754E-01 0.000E+00

     total cpu time spent up to now is        5.0 secs

     total energy              =      -2.05318410 Ry
     estimated scf accuracy    <       0.00000010 Ry

     iteration # 23     ecut=     5.00 Ry     beta= 0.70
     Davidson diagonalization with overlap

---- Real-time Memory Report at c_bands before calling an iterative solver
            56 MiB given to the printing process from OS
             0 MiB allocation reported by mallinfo(arena+hblkhd)
           522 MiB available memory on the node where the printing process lives
------------------
     ethr =  1.95E-09,  avg # of iterations =  2.0

     negative rho (up, down):  2.754E-01 0.000E+00

     total cpu time spent up to now is        5.1 secs

     total energy              =      -2.05318356 Ry
     estimated scf accuracy    <       0.00000007 Ry

     iteration # 24     ecut=     5.00 Ry     beta= 0.70
     Davidson diagonalization with overlap

---- Real-time Memory Report at c_bands before calling an iterative solver
            56 MiB given to the printing process from OS
             0 MiB allocation reported by mallinfo(arena+hblkhd)
           522 MiB available memory on the node where the printing process lives
------------------
     ethr =  1.95E-09,  avg # of iterations =  2.0

     negative rho (up, down):  2.754E-01 0.000E+00

     total cpu time spent up to now is        5.2 secs

     total energy              =      -2.05318346 Ry
     estimated scf accuracy    <       0.00000007 Ry

     iteration # 25     ecut=     5.00 Ry     beta= 0.70
     Davidson diagonalization with overlap

---- Real-time Memory Report at c_bands before calling an iterative solver
            56 MiB given to the printing process from OS
             0 MiB allocation reported by mallinfo(arena+hblkhd)
           522 MiB available memory on the node where the printing process lives
------------------
     ethr =  1.95E-09,  avg # of iterations =  1.0

     negative rho (up, down):  2.754E-01 0.000E+00

     total cpu time spent up to now is        5.2 secs

     total energy              =      -2.05318401 Ry
     estimated scf accuracy    <       0.00000008 Ry

     iteration # 26     ecut=     5.00 Ry     beta= 0.70
     Davidson diagonalization with overlap

---- Real-time Memory Report at c_bands before calling an iterative solver
            56 MiB given to the printing process from OS
             0 MiB allocation reported by mallinfo(arena+hblkhd)
           522 MiB available memory on the node where the printing process lives
------------------
     ethr =  1.95E-09,  avg # of iterations =  2.0

     negative rho (up, down):  2.754E-01 0.000E+00

     total cpu time spent up to now is        5.3 secs

     total energy              =      -2.05315555 Ry
     estimated scf accuracy    <       0.00000007 Ry

     iteration # 27     ecut=     5.00 Ry     beta= 0.70
     Davidson diagonalization with overlap

---- Real-time Memory Report at c_bands before calling an iterative solver
            56 MiB given to the printing process from OS
             0 MiB allocation reported by mallinfo(arena+hblkhd)
           522 MiB available memory on the node where the printing process lives
------------------
     ethr =  1.95E-09,  avg # of iterations =  4.0

     negative rho (up, down):  2.754E-01 0.000E+00

     total cpu time spent up to now is        5.4 secs

     total energy              =      -2.05316670 Ry
     estimated scf accuracy    <       0.00000023 Ry

     iteration # 28     ecut=     5.00 Ry     beta= 0.70
     Davidson diagonalization with overlap

---- Real-time Memory Report at c_bands before calling an iterative solver
            56 MiB given to the printing process from OS
             0 MiB allocation reported by mallinfo(arena+hblkhd)
           522 MiB available memory on the node where the printing process lives
------------------
     ethr =  1.95E-09,  avg # of iterations =  2.0

     negative rho (up, down):  2.754E-01 0.000E+00

     total cpu time spent up to now is        5.4 secs

     total energy              =      -2.05316496 Ry
     estimated scf accuracy    <       0.00000028 Ry

     iteration # 29     ecut=     5.00 Ry     beta= 0.70
     Davidson diagonalization with overlap

---- Real-time Memory Report at c_bands before calling an iterative solver
            56 MiB given to the printing process from OS
             0 MiB allocation reported by mallinfo(arena+hblkhd)
           522 MiB available memory on the node where the printing process lives
------------------
     ethr =  1.95E-09,  avg # of iterations =  2.0

     negative rho (up, down):  2.754E-01 0.000E+00

     total cpu time spent up to now is        5.5 secs

     total energy              =      -2.05316412 Ry
     estimated scf accuracy    <       0.00000024 Ry

     iteration # 30     ecut=     5.00 Ry     beta= 0.70
     Davidson diagonalization with overlap

---- Real-time Memory Report at c_bands before calling an iterative solver
            56 MiB given to the printing process from OS
             0 MiB allocation reported by mallinfo(arena+hblkhd)
           522 MiB available memory on the node where the printing process lives
------------------
     ethr =  1.95E-09,  avg # of iterations =  3.0

     negative rho (up, down):  2.754E-01 0.000E+00

     total cpu time spent up to now is        5.6 secs

     total energy              =      -2.05316488 Ry
     estimated scf accuracy    <       0.00000016 Ry

     iteration # 31     ecut=     5.00 Ry     beta= 0.70
     Davidson diagonalization with overlap

---- Real-time Memory Report at c_bands before calling an iterative solver
            56 MiB given to the printing process from OS
             0 MiB allocation reported by mallinfo(arena+hblkhd)
           522 MiB available memory on the node where the printing process lives
------------------
     ethr =  1.95E-09,  avg # of iterations =  2.0

     negative rho (up, down):  2.754E-01 0.000E+00

     total cpu time spent up to now is        5.7 secs

     total energy              =      -2.05316490 Ry
     estimated scf accuracy    <       0.00000017 Ry

     iteration # 32     ecut=     5.00 Ry     beta= 0.70
     Davidson diagonalization with overlap

---- Real-time Memory Report at c_bands before calling an iterative solver
            56 MiB given to the printing process from OS
             0 MiB allocation reported by mallinfo(arena+hblkhd)
           522 MiB available memory on the node where the printing process lives
------------------
     ethr =  1.95E-09,  avg # of iterations =  2.0

     negative rho (up, down):  2.754E-01 0.000E+00

     total cpu time spent up to now is        5.7 secs

     total energy              =      -2.05317733 Ry
     estimated scf accuracy    <       0.00000017 Ry

     iteration # 33     ecut=     5.00 Ry     beta= 0.70
     Davidson diagonalization with overlap

---- Real-time Memory Report at c_bands before calling an iterative solver
            56 MiB given to the printing process from OS
             0 MiB allocation reported by mallinfo(arena+hblkhd)
           522 MiB available memory on the node where the printing process lives
------------------
     ethr =  1.95E-09,  avg # of iterations =  4.0

     negative rho (up, down):  2.754E-01 0.000E+00

     total cpu time spent up to now is        5.8 secs

     total energy              =      -2.05320126 Ry
     estimated scf accuracy    <       0.00000007 Ry

     iteration # 34     ecut=     5.00 Ry     beta= 0.70
     Davidson diagonalization with overlap

---- Real-time Memory Report at c_bands before calling an iterative solver
            56 MiB given to the printing process from OS
             0 MiB allocation reported by mallinfo(arena+hblkhd)
           522 MiB available memory on the node where the printing process lives
------------------
     ethr =  1.95E-09,  avg # of iterations =  3.0

     negative rho (up, down):  2.754E-01 0.000E+00

     total cpu time spent up to now is        5.9 secs

     total energy              =      -2.05320125 Ry
     estimated scf accuracy    <       0.00000004 Ry

     iteration # 35     ecut=     5.00 Ry     beta= 0.70
     Davidson diagonalization with overlap

---- Real-time Memory Report at c_bands before calling an iterative solver
            56 MiB given to the printing process from OS
             0 MiB allocation reported by mallinfo(arena+hblkhd)
           522 MiB available memory on the node where the printing process lives
------------------
     ethr =  1.79E-09,  avg # of iterations =  4.0

     negative rho (up, down):  2.754E-01 0.000E+00

     total cpu time spent up to now is        5.9 secs

     total energy              =      -2.05320446 Ry
     estimated scf accuracy    <       0.00000011 Ry

     iteration # 36     ecut=     5.00 Ry     beta= 0.70
     Davidson diagonalization with overlap

---- Real-time Memory Report at c_bands before calling an iterative solver
            56 MiB given to the printing process from OS
             0 MiB allocation reported by mallinfo(arena+hblkhd)
           522 MiB available memory on the node where the printing process lives
------------------
     ethr =  1.79E-09,  avg # of iterations =  3.0

     negative rho (up, down):  2.754E-01 0.000E+00

     total cpu time spent up to now is        6.0 secs

     total energy              =      -2.05319766 Ry
     estimated scf accuracy    <       0.00000018 Ry

     iteration # 37     ecut=     5.00 Ry     beta= 0.70
     Davidson diagonalization with overlap

---- Real-time Memory Report at c_bands before calling an iterative solver
            56 MiB given to the printing process from OS
             0 MiB allocation reported by mallinfo(arena+hblkhd)
           522 MiB available memory on the node where the printing process lives
------------------
     ethr =  1.79E-09,  avg # of iterations =  4.0

     negative rho (up, down):  2.755E-01 0.000E+00

     total cpu time spent up to now is        6.1 secs

     total energy              =      -2.05320380 Ry
     estimated scf accuracy    <       0.00000016 Ry

     iteration # 38     ecut=     5.00 Ry     beta= 0.70
     Davidson diagonalization with overlap

---- Real-time Memory Report at c_bands before calling an iterative solver
            56 MiB given to the printing process from OS
             0 MiB allocation reported by mallinfo(arena+hblkhd)
           522 MiB available memory on the node where the printing process lives
------------------
     ethr =  1.79E-09,  avg # of iterations =  3.0

     negative rho (up, down):  2.754E-01 0.000E+00

     total cpu time spent up to now is        6.2 secs

     total energy              =      -2.05320061 Ry
     estimated scf accuracy    <       0.00000022 Ry

     iteration # 39     ecut=     5.00 Ry     beta= 0.70
     Davidson diagonalization with overlap

---- Real-time Memory Report at c_bands before calling an iterative solver
            56 MiB given to the printing process from OS
             0 MiB allocation reported by mallinfo(arena+hblkhd)
           522 MiB available memory on the node where the printing process lives
------------------
     ethr =  1.79E-09,  avg # of iterations =  4.0

     negative rho (up, down):  2.754E-01 0.000E+00

     total cpu time spent up to now is        6.2 secs

     total energy              =      -2.05320048 Ry
     estimated scf accuracy    <       0.00000007 Ry

     iteration # 40     ecut=     5.00 Ry     beta= 0.70
     Davidson diagonalization with overlap

---- Real-time Memory Report at c_bands before calling an iterative solver
            56 MiB given to the printing process from OS
             0 MiB allocation reported by mallinfo(arena+hblkhd)
           522 MiB available memory on the node where the printing process lives
------------------
     ethr =  1.79E-09,  avg # of iterations =  4.0

     negative rho (up, down):  2.754E-01 0.000E+00

     total cpu time spent up to now is        6.3 secs

     total energy              =      -2.05316084 Ry
     estimated scf accuracy    <       0.00000011 Ry

     iteration # 41     ecut=     5.00 Ry     beta= 0.70
     Davidson diagonalization with overlap

---- Real-time Memory Report at c_bands before calling an iterative solver
            56 MiB given to the printing process from OS
             0 MiB allocation reported by mallinfo(arena+hblkhd)
           522 MiB available memory on the node where the printing process lives
------------------
     ethr =  1.79E-09,  avg # of iterations =  4.0

     negative rho (up, down):  2.754E-01 0.000E+00

     total cpu time spent up to now is        6.4 secs

     total energy              =      -2.05316637 Ry
     estimated scf accuracy    <       0.00000017 Ry

     iteration # 42     ecut=     5.00 Ry     beta= 0.70
     Davidson diagonalization with overlap

---- Real-time Memory Report at c_bands before calling an iterative solver
            56 MiB given to the printing process from OS
             0 MiB allocation reported by mallinfo(arena+hblkhd)
           522 MiB available memory on the node where the printing process lives
------------------
     ethr =  1.79E-09,  avg # of iterations =  3.0

     negative rho (up, down):  2.754E-01 0.000E+00

     total cpu time spent up to now is        6.5 secs

     total energy              =      -2.05320215 Ry
     estimated scf accuracy    <       0.00000037 Ry

     iteration # 43     ecut=     5.00 Ry     beta= 0.70
     Davidson diagonalization with overlap

---- Real-time Memory Report at c_bands before calling an iterative solver
            56 MiB given to the printing process from OS
             0 MiB allocation reported by mallinfo(arena+hblkhd)
           522 MiB available memory on the node where the printing process lives
------------------
     ethr =  1.79E-09,  avg # of iterations =  4.0

     negative rho (up, down):  2.754E-01 0.000E+00

     total cpu time spent up to now is        6.5 secs

     total energy              =      -2.05318186 Ry
     estimated scf accuracy    <       0.00000009 Ry

     iteration # 44     ecut=     5.00 Ry     beta= 0.70
     Davidson diagonalization with overlap

---- Real-time Memory Report at c_bands before calling an iterative solver
            56 MiB given to the printing process from OS
             0 MiB allocation reported by mallinfo(arena+hblkhd)
           522 MiB available memory on the node where the printing process lives
------------------
     ethr =  1.79E-09,  avg # of iterations =  4.0

     negative rho (up, down):  2.754E-01 0.000E+00

     total cpu time spent up to now is        6.6 secs

     total energy              =      -2.05315429 Ry
     estimated scf accuracy    <       0.00000011 Ry

     iteration # 45     ecut=     5.00 Ry     beta= 0.70
     Davidson diagonalization with overlap

---- Real-time Memory Report at c_bands before calling an iterative solver
            56 MiB given to the printing process from OS
             0 MiB allocation reported by mallinfo(arena+hblkhd)
           522 MiB available memory on the node where the printing process lives
------------------
     ethr =  1.79E-09,  avg # of iterations =  4.0

     negative rho (up, down):  2.754E-01 0.000E+00

     total cpu time spent up to now is        6.7 secs

     total energy              =      -2.05317445 Ry
     estimated scf accuracy    <       0.00000022 Ry

     iteration # 46     ecut=     5.00 Ry     beta= 0.70
     Davidson diagonalization with overlap

---- Real-time Memory Report at c_bands before calling an iterative solver
            56 MiB given to the printing process from OS
             0 MiB allocation reported by mallinfo(arena+hblkhd)
           522 MiB available memory on the node where the printing process lives
------------------
     ethr =  1.79E-09,  avg # of iterations =  4.0

     negative rho (up, down):  2.754E-01 0.000E+00

     total cpu time spent up to now is        6.8 secs

     total energy              =      -2.05318533 Ry
     estimated scf accuracy    <       0.00000007 Ry

     iteration # 47     ecut=     5.00 Ry     beta= 0.70
     Davidson diagonalization with overlap

---- Real-time Memory Report at c_bands before calling an iterative solver
            56 MiB given to the printing process from OS
             0 MiB allocation reported by mallinfo(arena+hblkhd)
           522 MiB available memory on the node where the printing process lives
------------------
     ethr =  1.79E-09,  avg # of iterations =  1.0

     negative rho (up, down):  2.754E-01 0.000E+00

     total cpu time spent up to now is        6.8 secs

     total energy              =      -2.05318423 Ry
     estimated scf accuracy    <       0.00000007 Ry

     iteration # 48     ecut=     5.00 Ry     beta= 0.70
     Davidson diagonalization with overlap

---- Real-time Memory Report at c_bands before calling an iterative solver
            56 MiB given to the printing process from OS
             0 MiB allocation reported by mallinfo(arena+hblkhd)
           522 MiB available memory on the node where the printing process lives
------------------
     ethr =  1.79E-09,  avg # of iterations =  1.0

     negative rho (up, down):  2.754E-01 0.000E+00

     total cpu time spent up to now is        6.9 secs

     total energy              =      -2.05318428 Ry
     estimated scf accuracy    <       0.00000006 Ry

     iteration # 49     ecut=     5.00 Ry     beta= 0.70
     Davidson diagonalization with overlap

---- Real-time Memory Report at c_bands before calling an iterative solver
            56 MiB given to the printing process from OS
             0 MiB allocation reported by mallinfo(arena+hblkhd)
           522 MiB available memory on the node where the printing process lives
------------------
     ethr =  1.79E-09,  avg # of iterations =  2.0

     negative rho (up, down):  2.754E-01 0.000E+00

     total cpu time spent up to now is        7.0 secs

     total energy              =      -2.05318399 Ry
     estimated scf accuracy    <       0.00000008 Ry

     iteration # 50     ecut=     5.00 Ry     beta= 0.70
     Davidson diagonalization with overlap

---- Real-time Memory Report at c_bands before calling an iterative solver
            56 MiB given to the printing process from OS
             0 MiB allocation reported by mallinfo(arena+hblkhd)
           522 MiB available memory on the node where the printing process lives
------------------
     ethr =  1.79E-09,  avg # of iterations =  2.0

     negative rho (up, down):  2.754E-01 0.000E+00

     total cpu time spent up to now is        7.0 secs

     total energy              =      -2.05318649 Ry
     estimated scf accuracy    <       0.00000007 Ry

     iteration # 51     ecut=     5.00 Ry     beta= 0.70
     Davidson diagonalization with overlap

---- Real-time Memory Report at c_bands before calling an iterative solver
            56 MiB given to the printing process from OS
             0 MiB allocation reported by mallinfo(arena+hblkhd)
           522 MiB available memory on the node where the printing process lives
------------------
     ethr =  1.79E-09,  avg # of iterations =  4.0

     negative rho (up, down):  2.754E-01 0.000E+00

     total cpu time spent up to now is        7.1 secs

     total energy              =      -2.05315927 Ry
     estimated scf accuracy    <       0.00000043 Ry

     iteration # 52     ecut=     5.00 Ry     beta= 0.70
     Davidson diagonalization with overlap

---- Real-time Memory Report at c_bands before calling an iterative solver
            56 MiB given to the printing process from OS
             0 MiB allocation reported by mallinfo(arena+hblkhd)
           522 MiB available memory on the node where the printing process lives
------------------
     ethr =  1.79E-09,  avg # of iterations =  4.0

     negative rho (up, down):  2.754E-01 0.000E+00

     total cpu time spent up to now is        7.2 secs

     total energy              =      -2.05316201 Ry
     estimated scf accuracy    <       0.00000014 Ry

     iteration # 53     ecut=     5.00 Ry     beta= 0.70
     Davidson diagonalization with overlap

---- Real-time Memory Report at c_bands before calling an iterative solver
            56 MiB given to the printing process from OS
             0 MiB allocation reported by mallinfo(arena+hblkhd)
           522 MiB available memory on the node where the printing process lives
------------------
     ethr =  1.79E-09,  avg # of iterations =  2.0

     negative rho (up, down):  2.754E-01 0.000E+00

     total cpu time spent up to now is        7.3 secs

     total energy              =      -2.05316504 Ry
     estimated scf accuracy    <       0.00000014 Ry

     iteration # 54     ecut=     5.00 Ry     beta= 0.70
     Davidson diagonalization with overlap

---- Real-time Memory Report at c_bands before calling an iterative solver
            56 MiB given to the printing process from OS
             0 MiB allocation reported by mallinfo(arena+hblkhd)
           522 MiB available memory on the node where the printing process lives
------------------
     ethr =  1.79E-09,  avg # of iterations =  3.0

     negative rho (up, down):  2.754E-01 0.000E+00

     total cpu time spent up to now is        7.3 secs

     total energy              =      -2.05320069 Ry
     estimated scf accuracy    <       0.00000034 Ry

     iteration # 55     ecut=     5.00 Ry     beta= 0.70
     Davidson diagonalization with overlap

---- Real-time Memory Report at c_bands before calling an iterative solver
            56 MiB given to the printing process from OS
             0 MiB allocation reported by mallinfo(arena+hblkhd)
           522 MiB available memory on the node where the printing process lives
------------------
     ethr =  1.79E-09,  avg # of iterations =  4.0

     negative rho (up, down):  2.754E-01 0.000E+00

     total cpu time spent up to now is        7.4 secs

     total energy              =      -2.05320981 Ry
     estimated scf accuracy    <       0.00000028 Ry

     iteration # 56     ecut=     5.00 Ry     beta= 0.70
     Davidson diagonalization with overlap

---- Real-time Memory Report at c_bands before calling an iterative solver
            56 MiB given to the printing process from OS
             0 MiB allocation reported by mallinfo(arena+hblkhd)
           522 MiB available memory on the node where the printing process lives
------------------
     ethr =  1.79E-09,  avg # of iterations =  3.0

     negative rho (up, down):  2.754E-01 0.000E+00

     total cpu time spent up to now is        7.5 secs

     total energy              =      -2.05316204 Ry
     estimated scf accuracy    <       0.00000007 Ry

     iteration # 57     ecut=     5.00 Ry     beta= 0.70
     Davidson diagonalization with overlap

---- Real-time Memory Report at c_bands before calling an iterative solver
            56 MiB given to the printing process from OS
             0 MiB allocation reported by mallinfo(arena+hblkhd)
           522 MiB available memory on the node where the printing process lives
------------------
     ethr =  1.79E-09,  avg # of iterations =  4.0

     negative rho (up, down):  2.754E-01 0.000E+00

[...]
------------------
     ethr =  1.79E-09,  avg # of iterations =  4.0

     negative rho (up, down):  2.754E-01 0.000E+00

     total cpu time spent up to now is        8.9 secs

     total energy              =      -2.05320518 Ry
     estimated scf accuracy    <       0.00000007 Ry

     iteration # 77     ecut=     5.00 Ry     beta= 0.70
     Davidson diagonalization with overlap

---- Real-time Memory Report at c_bands before calling an iterative solver
            56 MiB given to the printing process from OS
             0 MiB allocation reported by mallinfo(arena+hblkhd)
           522 MiB available memory on the node where the printing process lives
------------------
     ethr =  1.79E-09,  avg # of iterations =  3.0

     negative rho (up, down):  2.754E-01 0.000E+00

     total cpu time spent up to now is        9.0 secs

     total energy              =      -2.05316321 Ry
     estimated scf accuracy    <       0.00000011 Ry

     iteration # 78     ecut=     5.00 Ry     beta= 0.70
     Davidson diagonalization with overlap

---- Real-time Memory Report at c_bands before calling an iterative solver
            56 MiB given to the printing process from OS
             0 MiB allocation reported by mallinfo(arena+hblkhd)
           522 MiB available memory on the node where the printing process lives
------------------
     ethr =  1.79E-09,  avg # of iterations =  3.0

     negative rho (up, down):  2.754E-01 0.000E+00

     total cpu time spent up to now is        9.1 secs

     total energy              =      -2.05316287 Ry
     estimated scf accuracy    <       0.00000014 Ry

     iteration # 79     ecut=     5.00 Ry     beta= 0.70
     Davidson diagonalization with overlap

---- Real-time Memory Report at c_bands before calling an iterative solver
            56 MiB given to the printing process from OS
             0 MiB allocation reported by mallinfo(arena+hblkhd)
           522 MiB available memory on the node where the printing process lives
------------------
     ethr =  1.79E-09,  avg # of iterations =  2.0

     negative rho (up, down):  2.754E-01 0.000E+00

     total cpu time spent up to now is        9.2 secs

     total energy              =      -2.05316331 Ry
     estimated scf accuracy    <       0.00000014 Ry

     iteration # 80     ecut=     5.00 Ry     beta= 0.70
     Davidson diagonalization with overlap

---- Real-time Memory Report at c_bands before calling an iterative solver
            56 MiB given to the printing process from OS
             0 MiB allocation reported by mallinfo(arena+hblkhd)
           522 MiB available memory on the node where the printing process lives
------------------
     ethr =  1.79E-09,  avg # of iterations =  2.0

     negative rho (up, down):  2.754E-01 0.000E+00

     total cpu time spent up to now is        9.2 secs

     total energy              =      -2.05316338 Ry
     estimated scf accuracy    <       0.00000015 Ry

     iteration # 81     ecut=     5.00 Ry     beta= 0.70
     Davidson diagonalization with overlap

---- Real-time Memory Report at c_bands before calling an iterative solver
            56 MiB given to the printing process from OS
             0 MiB allocation reported by mallinfo(arena+hblkhd)
           522 MiB available memory on the node where the printing process lives
------------------
     ethr =  1.79E-09,  avg # of iterations =  1.0

     negative rho (up, down):  2.754E-01 0.000E+00

     total cpu time spent up to now is        9.3 secs

     total energy              =      -2.05316628 Ry
     estimated scf accuracy    <       0.00000015 Ry

     iteration # 82     ecut=     5.00 Ry     beta= 0.70
     Davidson diagonalization with overlap

---- Real-time Memory Report at c_bands before calling an iterative solver
            56 MiB given to the printing process from OS
             0 MiB allocation reported by mallinfo(arena+hblkhd)
           522 MiB available memory on the node where the printing process lives
------------------
     ethr =  1.79E-09,  avg # of iterations =  4.0

     negative rho (up, down):  2.754E-01 0.000E+00

     total cpu time spent up to now is        9.4 secs

     total energy              =      -2.05316339 Ry
     estimated scf accuracy    <       0.00000042 Ry

     iteration # 83     ecut=     5.00 Ry     beta= 0.70
     Davidson diagonalization with overlap

---- Real-time Memory Report at c_bands before calling an iterative solver
            56 MiB given to the printing process from OS
             0 MiB allocation reported by mallinfo(arena+hblkhd)
           522 MiB available memory on the node where the printing process lives
------------------
     ethr =  1.79E-09,  avg # of iterations =  3.0

     negative rho (up, down):  2.754E-01 0.000E+00

     total cpu time spent up to now is        9.4 secs

     total energy              =      -2.05316047 Ry
     estimated scf accuracy    <       0.00000022 Ry

     iteration # 84     ecut=     5.00 Ry     beta= 0.70
     Davidson diagonalization with overlap

---- Real-time Memory Report at c_bands before calling an iterative solver
            56 MiB given to the printing process from OS
             0 MiB allocation reported by mallinfo(arena+hblkhd)
           522 MiB available memory on the node where the printing process lives
------------------
     ethr =  1.79E-09,  avg # of iterations =  3.0

     negative rho (up, down):  2.754E-01 0.000E+00

     total cpu time spent up to now is        9.5 secs

     total energy              =      -2.05315613 Ry
     estimated scf accuracy    <       0.00000012 Ry

     iteration # 85     ecut=     5.00 Ry     beta= 0.70
     Davidson diagonalization with overlap

---- Real-time Memory Report at c_bands before calling an iterative solver
            56 MiB given to the printing process from OS
             0 MiB allocation reported by mallinfo(arena+hblkhd)
           522 MiB available memory on the node where the printing process lives
------------------
     ethr =  1.79E-09,  avg # of iterations =  3.0

     negative rho (up, down):  2.754E-01 0.000E+00

     total cpu time spent up to now is        9.6 secs

     total energy              =      -2.05315519 Ry
     estimated scf accuracy    <       0.00000008 Ry

     iteration # 86     ecut=     5.00 Ry     beta= 0.70
     Davidson diagonalization with overlap

---- Real-time Memory Report at c_bands before calling an iterative solver
            56 MiB given to the printing process from OS
             0 MiB allocation reported by mallinfo(arena+hblkhd)
           522 MiB available memory on the node where the printing process lives
------------------
     ethr =  1.79E-09,  avg # of iterations =  4.0

     negative rho (up, down):  2.754E-01 0.000E+00

     total cpu time spent up to now is        9.7 secs

     total energy              =      -2.05318614 Ry
     estimated scf accuracy    <       0.00000048 Ry

     iteration # 87     ecut=     5.00 Ry     beta= 0.70
     Davidson diagonalization with overlap

---- Real-time Memory Report at c_bands before calling an iterative solver
            56 MiB given to the printing process from OS
             0 MiB allocation reported by mallinfo(arena+hblkhd)
           522 MiB available memory on the node where the printing process lives
------------------
     ethr =  1.79E-09,  avg # of iterations =  4.0

     negative rho (up, down):  2.754E-01 0.000E+00

     total cpu time spent up to now is        9.7 secs

     total energy              =      -2.05319854 Ry
     estimated scf accuracy    <       0.00000007 Ry

     iteration # 88     ecut=     5.00 Ry     beta= 0.70
     Davidson diagonalization with overlap

---- Real-time Memory Report at c_bands before calling an iterative solver
            56 MiB given to the printing process from OS
             0 MiB allocation reported by mallinfo(arena+hblkhd)
           522 MiB available memory on the node where the printing process lives
------------------
     ethr =  1.79E-09,  avg # of iterations =  3.0

     negative rho (up, down):  2.754E-01 0.000E+00

     total cpu time spent up to now is        9.8 secs

     total energy              =      -2.05318156 Ry
     estimated scf accuracy    <       0.00000009 Ry

     iteration # 89     ecut=     5.00 Ry     beta= 0.70
     Davidson diagonalization with overlap

---- Real-time Memory Report at c_bands before calling an iterative solver
            56 MiB given to the printing process from OS
             0 MiB allocation reported by mallinfo(arena+hblkhd)
           522 MiB available memory on the node where the printing process lives
------------------
     ethr =  1.79E-09,  avg # of iterations =  4.0

     negative rho (up, down):  2.754E-01 0.000E+00

     total cpu time spent up to now is        9.9 secs

     total energy              =      -2.05320538 Ry
     estimated scf accuracy    <       0.00000013 Ry

     iteration # 90     ecut=     5.00 Ry     beta= 0.70
     Davidson diagonalization with overlap

---- Real-time Memory Report at c_bands before calling an iterative solver
            56 MiB given to the printing process from OS
             0 MiB allocation reported by mallinfo(arena+hblkhd)
           522 MiB available memory on the node where the printing process lives
------------------
     ethr =  1.79E-09,  avg # of iterations =  3.0

     negative rho (up, down):  2.755E-01 0.000E+00

     total cpu time spent up to now is       10.0 secs

     total energy              =      -2.05318976 Ry
     estimated scf accuracy    <       0.00000034 Ry

     iteration # 91     ecut=     5.00 Ry     beta= 0.70
     Davidson diagonalization with overlap

---- Real-time Memory Report at c_bands before calling an iterative solver
            56 MiB given to the printing process from OS
             0 MiB allocation reported by mallinfo(arena+hblkhd)
           522 MiB available memory on the node where the printing process lives
------------------
     ethr =  1.79E-09,  avg # of iterations =  4.0

     negative rho (up, down):  2.754E-01 0.000E+00

     total cpu time spent up to now is       10.0 secs

     total energy              =      -2.05317746 Ry
     estimated scf accuracy    <       0.00000009 Ry

     iteration # 92     ecut=     5.00 Ry     beta= 0.70
     Davidson diagonalization with overlap

---- Real-time Memory Report at c_bands before calling an iterative solver
            56 MiB given to the printing process from OS
             0 MiB allocation reported by mallinfo(arena+hblkhd)
           522 MiB available memory on the node where the printing process lives
------------------
     ethr =  1.79E-09,  avg # of iterations =  4.0

     negative rho (up, down):  2.754E-01 0.000E+00

     total cpu time spent up to now is       10.1 secs

     total energy              =      -2.05318470 Ry
     estimated scf accuracy    <       0.00000009 Ry

     iteration # 93     ecut=     5.00 Ry     beta= 0.70
     Davidson diagonalization with overlap

---- Real-time Memory Report at c_bands before calling an iterative solver
            56 MiB given to the printing process from OS
             0 MiB allocation reported by mallinfo(arena+hblkhd)
           522 MiB available memory on the node where the printing process lives
------------------
     ethr =  1.79E-09,  avg # of iterations =  2.0

     negative rho (up, down):  2.754E-01 0.000E+00

     total cpu time spent up to now is       10.2 secs

     total energy              =      -2.05314823 Ry
     estimated scf accuracy    <       0.00000007 Ry

     iteration # 94     ecut=     5.00 Ry     beta= 0.70
     Davidson diagonalization with overlap

---- Real-time Memory Report at c_bands before calling an iterative solver
            56 MiB given to the printing process from OS
             0 MiB allocation reported by mallinfo(arena+hblkhd)
           522 MiB available memory on the node where the printing process lives
------------------
     ethr =  1.79E-09,  avg # of iterations =  4.0

     negative rho (up, down):  2.754E-01 0.000E+00

     total cpu time spent up to now is       10.2 secs

     total energy              =      -2.05319290 Ry
     estimated scf accuracy    <       0.00000044 Ry

     iteration # 95     ecut=     5.00 Ry     beta= 0.70
     Davidson diagonalization with overlap

---- Real-time Memory Report at c_bands before calling an iterative solver
            56 MiB given to the printing process from OS
             0 MiB allocation reported by mallinfo(arena+hblkhd)
           522 MiB available memory on the node where the printing process lives
------------------
     ethr =  1.79E-09,  avg # of iterations =  4.0

     negative rho (up, down):  2.754E-01 0.000E+00

     total cpu time spent up to now is       10.3 secs

     total energy              =      -2.05316085 Ry
     estimated scf accuracy    <       0.00000004 Ry

     iteration # 96     ecut=     5.00 Ry     beta= 0.70
     Davidson diagonalization with overlap

---- Real-time Memory Report at c_bands before calling an iterative solver
            56 MiB given to the printing process from OS
             0 MiB allocation reported by mallinfo(arena+hblkhd)
           522 MiB available memory on the node where the printing process lives
------------------
     ethr =  1.79E-09,  avg # of iterations =  4.0

     negative rho (up, down):  2.754E-01 0.000E+00

     total cpu time spent up to now is       10.4 secs

     total energy              =      -2.05316149 Ry
     estimated scf accuracy    <       0.00000015 Ry

     iteration # 97     ecut=     5.00 Ry     beta= 0.70
     Davidson diagonalization with overlap

---- Real-time Memory Report at c_bands before calling an iterative solver
            56 MiB given to the printing process from OS
             0 MiB allocation reported by mallinfo(arena+hblkhd)
           522 MiB available memory on the node where the printing process lives
------------------
     ethr =  1.79E-09,  avg # of iterations =  2.0

     negative rho (up, down):  2.754E-01 0.000E+00

     total cpu time spent up to now is       10.5 secs

     total energy              =      -2.05316368 Ry
     estimated scf accuracy    <       0.00000013 Ry

     iteration # 98     ecut=     5.00 Ry     beta= 0.70
     Davidson diagonalization with overlap

---- Real-time Memory Report at c_bands before calling an iterative solver
            56 MiB given to the printing process from OS
             0 MiB allocation reported by mallinfo(arena+hblkhd)
           522 MiB available memory on the node where the printing process lives
------------------
     ethr =  1.79E-09,  avg # of iterations =  2.0

     negative rho (up, down):  2.754E-01 0.000E+00

     total cpu time spent up to now is       10.5 secs

     total energy              =      -2.05316449 Ry
     estimated scf accuracy    <       0.00000014 Ry

     iteration # 99     ecut=     5.00 Ry     beta= 0.70
     Davidson diagonalization with overlap

---- Real-time Memory Report at c_bands before calling an iterative solver
            56 MiB given to the printing process from OS
             0 MiB allocation reported by mallinfo(arena+hblkhd)
           522 MiB available memory on the node where the printing process lives
------------------
     ethr =  1.79E-09,  avg # of iterations =  3.0

     negative rho (up, down):  2.754E-01 0.000E+00

     total cpu time spent up to now is       10.6 secs

     total energy              =      -2.05316246 Ry
     estimated scf accuracy    <       0.00000019 Ry

     iteration #100     ecut=     5.00 Ry     beta= 0.70
     Davidson diagonalization with overlap

---- Real-time Memory Report at c_bands before calling an iterative solver
            56 MiB given to the printing process from OS
             0 MiB allocation reported by mallinfo(arena+hblkhd)
           522 MiB available memory on the node where the printing process lives
------------------
     ethr =  1.79E-09,  avg # of iterations =  3.0

     negative rho (up, down):  2.754E-01 0.000E+00

     total cpu time spent up to now is       10.7 secs

     total energy              =      -2.05316558 Ry
     estimated scf accuracy    <       0.00000014 Ry

     End of self-consistent calculation

     convergence NOT achieved after 100 iterations: stopping

     Writing config to output data dir ./.save/
     Message from routine punch:
     wavefunctions written to file

     init_run     :      0.06s CPU      0.08s WALL (       1 calls)
     electrons    :     10.44s CPU     10.50s WALL (       2 calls)
     update_pot   :      0.04s CPU      0.05s WALL (       1 calls)
     forces       :      0.01s CPU      0.02s WALL (       1 calls)

     Called by init_run:
     wfcinit      :      0.01s CPU      0.01s WALL (       1 calls)
     wfcinit:atom :      0.00s CPU      0.00s WALL (       1 calls)
     wfcinit:wfcr :      0.00s CPU      0.00s WALL (       1 calls)
     potinit      :      0.03s CPU      0.05s WALL (       1 calls)
     hinit0       :      0.01s CPU      0.01s WALL (       1 calls)

     Called by electrons:
     c_bands      :      2.16s CPU      2.18s WALL (     143 calls)
     sum_band     :      1.11s CPU      1.13s WALL (     143 calls)
     v_of_rho     :      5.60s CPU      5.64s WALL (     145 calls)
     v_h          :      0.28s CPU      0.28s WALL (     145 calls)
     v_xc         :      5.32s CPU      5.35s WALL (     145 calls)
     newd         :      0.36s CPU      0.36s WALL (     145 calls)
     mix_rho      :      1.15s CPU      1.15s WALL (     143 calls)

     Called by c_bands:
     init_us_2    :      0.04s CPU      0.04s WALL (     287 calls)
     init_us_2:cp :      0.04s CPU      0.04s WALL (     287 calls)
     cegterg      :      2.13s CPU      2.15s WALL (     143 calls)

     Called by sum_band:
     sum_band:wei :      0.00s CPU      0.00s WALL (     143 calls)
     sum_band:loo :      0.32s CPU      0.33s WALL (     143 calls)
     sum_band:buf :      0.00s CPU      0.00s WALL (     143 calls)
     sum_band:ini :      0.02s CPU      0.02s WALL (     143 calls)
     sum_band:cal :      0.00s CPU      0.00s WALL (     143 calls)
     sum_band:bec :      0.00s CPU      0.00s WALL (     143 calls)
     addusdens    :      0.10s CPU      0.10s WALL (     143 calls)
     addusd:skk   :      0.04s CPU      0.04s WALL (     143 calls)
     addusd:dgemm :      0.02s CPU      0.02s WALL (     143 calls)
     addusd:qvan2 :      0.02s CPU      0.02s WALL (     143 calls)

     Called by *egterg:
     cdiaghg      :      0.01s CPU      0.01s WALL (     613 calls)
     cegterg:over :      0.03s CPU      0.03s WALL (     471 calls)
     cegterg:upda :      0.02s CPU      0.02s WALL (     471 calls)
     cegterg:last :      0.04s CPU      0.04s WALL (     366 calls)
     h_psi        :      1.99s CPU      2.00s WALL (     615 calls)
     s_psi        :      0.01s CPU      0.01s WALL (     615 calls)
     g_psi        :      0.01s CPU      0.01s WALL (     471 calls)

     Called by h_psi:
     h_psi:calbec :      0.01s CPU      0.01s WALL (     615 calls)
     vloc_psi     :      1.95s CPU      1.97s WALL (     615 calls)
     add_vuspsi   :      0.01s CPU      0.01s WALL (     615 calls)

     General routines
     calbec       :      0.02s CPU      0.02s WALL (     762 calls)
     fft          :      2.46s CPU      2.46s WALL (    1598 calls)
     ffts         :      0.22s CPU      0.22s WALL (     143 calls)
     fftw         :      2.08s CPU      2.10s WALL (    2158 calls)
     davcio       :      0.00s CPU      0.00s WALL (      19 calls)


     PWSCF        :     10.59s CPU     10.70s WALL


   This run was terminated on:   2:53:50  28Feb2022            

=------------------------------------------------------------------------------=
   JOB DONE.
=------------------------------------------------------------------------------=
