
     Program PWSCF v.7.0 starts on 28Feb2022 at  3:24: 5 

     This program is part of the open-source Quantum ESPRESSO suite
     for quantum simulation of materials; please cite
         "P. Giannozzi et al., J. Phys.:Condens. Matter 21 395502 (2009);
         "P. Giannozzi et al., J. Phys.:Condens. Matter 29 465901 (2017);
         "P. Giannozzi et al., J. Chem. Phys. 152 154105 (2020);
          URL http://www.quantum-espresso.org", 
     in publications or presentations arising from this work. More details at
     http://www.quantum-espresso.org/quote

     Serial version
     554 MiB available memory on the printing compute node when the environment starts

     Waiting for input...
     Reading input from standard input

     Current dimensions of program PWSCF are:
     Max number of different atomic species (ntypx) = 10
     Max number of k-points (npk) =  40000
     Max angular momentum in pseudopotentials (lmaxx) =  4

     File ./.update deleted, as requested

     File ./.bfgs deleted, as requested

    ============================================================
    |  pseudopotential report for atomic species:  1           |
    |        pseudo potential version   7   3   2              |
    ------------------------------------------------------------
    |  hydrogen            PBE                  exchange-corr  |
    |  z =   1.    zv( 1) =   1.    exfact =   5.00000         |
    |  ifpcor =  0           atomic energy =  -0.91772 Ry      |
    |  index    orbital      occupation    energy              |
    |    1        100           1.00       -0.48               |
    |  rinner =  0.5000                                        |
    |    new generation scheme:                                |
    |    nbeta =  1     kkbeta =  271     rcloc =    0.6000    |
    |    ibeta    l     epsilon   rcut                         |
    |      1       0      -0.48   0.80                         |
    ============================================================

     IMPORTANT: XC functional enforced from input :
     Exchange-correlation= BLYP
                           (   1   3   1   3   0   0   0)
     Any further DFT definition will be discarded
     Please, verify this is what you really want


     G-vector sticks info
     --------------------
     sticks:   dense  smooth     PW     G-vecs:    dense   smooth      PW
     Sum        5721    5721   1565               326029   326029   45961

     Using Slab Decomposition



     bravais-lattice index     =            1
     lattice parameter (alat)  =      30.0000  a.u.
     unit-cell volume          =   27000.0000 (a.u.)^3
     number of atoms/cell      =            2
     number of atomic types    =            1
     number of electrons       =         2.00
     number of Kohn-Sham states=            2
     kinetic-energy cutoff     =      20.0000  Ry
     charge density cutoff     =      80.0000  Ry
     scf convergence threshold =      1.0E-08
     mixing beta               =       0.7000
     number of iterations used =            8  plain     mixing
     energy convergence thresh.=      1.0E-04
     force convergence thresh. =      1.0E-03
     Exchange-correlation= BLYP
                           (   1   3   1   3   0   0   0)
     nstep                     =           50


     celldm(1)=  30.000000  celldm(2)=   0.000000  celldm(3)=   0.000000
     celldm(4)=   0.000000  celldm(5)=   0.000000  celldm(6)=   0.000000

     crystal axes: (cart. coord. in units of alat)
               a(1) = (   1.000000   0.000000   0.000000 )  
               a(2) = (   0.000000   1.000000   0.000000 )  
               a(3) = (   0.000000   0.000000   1.000000 )  

     reciprocal axes: (cart. coord. in units 2 pi/alat)
               b(1) = (  1.000000  0.000000  0.000000 )  
               b(2) = (  0.000000  1.000000  0.000000 )  
               b(3) = (  0.000000  0.000000  1.000000 )  


     PseudoPot. # 1 for hy read from file:
     /root/q-e/pseudo/H_US.van
     MD5 check sum: a9a9bfe98ff56cf4de197d71fc46bb44
     Pseudo is Ultrasoft, Zval =  1.0
     Generated by Vanderbilt code, v. 7.3.2
     Using radial grid of  399 points,  1 beta functions with: 
                l(1) =   0
     Q(r) pseudized with  8 coefficients,  rinner =    0.500

     atomic species   valence    mass     pseudopotential
        H              1.00     1.00784     hy( 1.00)

      8 Sym. Ops. (no inversion) found


                                    s                        frac. trans.

      isym =  1     identity                                     

 cryst.   s( 1) = (     1          0          0      )
                  (     0          1          0      )
                  (     0          0          1      )

 cart.    s( 1) = (  1.0000000  0.0000000  0.0000000 )
                  (  0.0000000  1.0000000  0.0000000 )
                  (  0.0000000  0.0000000  1.0000000 )


      isym =  2     180 deg rotation - cart. axis [1,0,0]        

 cryst.   s( 2) = (     1          0          0      )
                  (     0         -1          0      )
                  (     0          0         -1      )

 cart.    s( 2) = (  1.0000000  0.0000000  0.0000000 )
                  (  0.0000000 -1.0000000  0.0000000 )
                  (  0.0000000  0.0000000 -1.0000000 )


      isym =  3      90 deg rotation - cart. axis [-1,0,0]       

 cryst.   s( 3) = (     1          0          0      )
                  (     0          0         -1      )
                  (     0          1          0      )

 cart.    s( 3) = (  1.0000000  0.0000000  0.0000000 )
                  (  0.0000000  0.0000000  1.0000000 )
                  (  0.0000000 -1.0000000  0.0000000 )


      isym =  4      90 deg rotation - cart. axis [1,0,0]        

 cryst.   s( 4) = (     1          0          0      )
                  (     0          0          1      )
                  (     0         -1          0      )

 cart.    s( 4) = (  1.0000000  0.0000000  0.0000000 )
                  (  0.0000000  0.0000000 -1.0000000 )
                  (  0.0000000  1.0000000  0.0000000 )


      isym =  5     inv. 180 deg rotation - cart. axis [0,0,1]   

 cryst.   s( 5) = (     1          0          0      )
                  (     0          1          0      )
                  (     0          0         -1      )

 cart.    s( 5) = (  1.0000000  0.0000000  0.0000000 )
                  (  0.0000000  1.0000000  0.0000000 )
                  (  0.0000000  0.0000000 -1.0000000 )


      isym =  6     inv. 180 deg rotation - cart. axis [0,1,0]   

 cryst.   s( 6) = (     1          0          0      )
                  (     0         -1          0      )
                  (     0          0          1      )

 cart.    s( 6) = (  1.0000000  0.0000000  0.0000000 )
                  (  0.0000000 -1.0000000  0.0000000 )
                  (  0.0000000  0.0000000  1.0000000 )


      isym =  7     inv. 180 deg rotation - cart. axis [0,1,1]   

 cryst.   s( 7) = (     1          0          0      )
                  (     0          0         -1      )
                  (     0         -1          0      )

 cart.    s( 7) = (  1.0000000  0.0000000  0.0000000 )
                  (  0.0000000  0.0000000 -1.0000000 )
                  (  0.0000000 -1.0000000  0.0000000 )


      isym =  8     inv. 180 deg rotation - cart. axis [0,1,-1]  

 cryst.   s( 8) = (     1          0          0      )
                  (     0          0          1      )
                  (     0          1          0      )

 cart.    s( 8) = (  1.0000000  0.0000000  0.0000000 )
                  (  0.0000000  0.0000000  1.0000000 )
                  (  0.0000000  1.0000000  0.0000000 )


     point group C_4v (4mm) 
     there are  5 classes
     the character table:

       E     2C4   C2    2s_v  2s_d 
A_1    1.00  1.00  1.00  1.00  1.00
A_2    1.00  1.00  1.00 -1.00 -1.00
B_1    1.00 -1.00  1.00  1.00 -1.00
B_2    1.00 -1.00  1.00 -1.00  1.00
E      2.00  0.00 -2.00  0.00  0.00

     the symmetry operations in each class and the name of the first element:

     E        1
          identity                                               
     2C4      3    4
           90 deg rotation - cart. axis [-1,0,0]                 
     C2       2
          180 deg rotation - cart. axis [1,0,0]                  
     2s_v     5    6
          inv. 180 deg rotation - cart. axis [0,0,1]             
     2s_d     7    8
          inv. 180 deg rotation - cart. axis [0,1,1]             

   Cartesian axes

     site n.     atom                  positions (alat units)
         1           H   tau(   1) = (   0.0000000   0.0000000   0.0000000  )
         2           H   tau(   2) = (   0.0516525   0.0000000   0.0000000  )

   Crystallographic axes

     site n.     atom                  positions (cryst. coord.)
         1           H   tau(   1) = (  0.0000000  0.0000000  0.0000000  )
         2           H   tau(   2) = (  0.0516525  0.0000000  0.0000000  )

     number of k points=     1
                       cart. coord. in units 2pi/alat
        k(    1) = (  -0.5000000  -0.5000000  -0.5000000), wk =   2.0000000

                       cryst. coord.
        k(    1) = (  -0.5000000  -0.5000000  -0.5000000), wk =   2.0000000

     Dense  grid:   326029 G-vectors     FFT dimensions: (  90,  90,  90)

     Dynamical RAM for                 wfc:       1.24 MB

     Dynamical RAM for     wfc (w. buffer):       1.24 MB

     Dynamical RAM for           str. fact:       4.97 MB

     Dynamical RAM for           local pot:       0.00 MB

     Dynamical RAM for          nlocal pot:       1.24 MB

     Dynamical RAM for                qrad:       0.01 MB

     Dynamical RAM for          rho,v,vnew:      31.61 MB

     Dynamical RAM for               rhoin:      10.54 MB

     Dynamical RAM for            rho*nmix:      79.60 MB

     Dynamical RAM for           G-vectors:      21.14 MB

     Dynamical RAM for          h,s,v(r/c):       0.00 MB

     Dynamical RAM for          <psi|beta>:       0.00 MB

     Dynamical RAM for                 psi:       2.49 MB

     Dynamical RAM for                hpsi:       2.49 MB

     Dynamical RAM for                spsi:       2.49 MB

     Dynamical RAM for      wfcinit/wfcrot:       2.49 MB

     Dynamical RAM for           addusdens:      29.85 MB

     Dynamical RAM for          addusforce:      42.29 MB

     Estimated static dynamical RAM per process >     108.52 MB

     Estimated max dynamical RAM per process >     230.40 MB

     Initial potential from superposition of free atoms

     starting charge       2.0000, renormalised to       2.0000

     negative rho (up, down):  5.686E-02 0.000E+00
     Starting wfcs are    2 randomized atomic wfcs

     total cpu time spent up to now is        0.6 secs

     Self-consistent Calculation

     iteration #  1     ecut=    20.00 Ry     beta= 0.70
     Davidson diagonalization with overlap

---- Real-time Memory Report at c_bands before calling an iterative solver
           195 MiB given to the printing process from OS
             0 MiB allocation reported by mallinfo(arena+hblkhd)
           424 MiB available memory on the node where the printing process lives
------------------
     ethr =  1.00E-02,  avg # of iterations =  3.0

     negative rho (up, down):  8.208E-02 0.000E+00

     total cpu time spent up to now is        1.3 secs

     total energy              =      -2.30605279 Ry
     estimated scf accuracy    <       0.09752375 Ry

     iteration #  2     ecut=    20.00 Ry     beta= 0.70
     Davidson diagonalization with overlap

---- Real-time Memory Report at c_bands before calling an iterative solver
           241 MiB given to the printing process from OS
             0 MiB allocation reported by mallinfo(arena+hblkhd)
           323 MiB available memory on the node where the printing process lives
------------------
     ethr =  4.88E-03,  avg # of iterations =  2.0

     negative rho (up, down):  8.755E-02 0.000E+00

     total cpu time spent up to now is        1.9 secs

     total energy              =      -2.30909899 Ry
     estimated scf accuracy    <       0.00118641 Ry

     iteration #  3     ecut=    20.00 Ry     beta= 0.70
     Davidson diagonalization with overlap

---- Real-time Memory Report at c_bands before calling an iterative solver
           252 MiB given to the printing process from OS
             0 MiB allocation reported by mallinfo(arena+hblkhd)
           313 MiB available memory on the node where the printing process lives
------------------
     ethr =  5.93E-05,  avg # of iterations = 11.0

     negative rho (up, down):  8.736E-02 0.000E+00

     total cpu time spent up to now is        2.8 secs

     total energy              =      -2.30951944 Ry
     estimated scf accuracy    <       0.00001336 Ry

     iteration #  4     ecut=    20.00 Ry     beta= 0.70
     Davidson diagonalization with overlap

---- Real-time Memory Report at c_bands before calling an iterative solver
           262 MiB given to the printing process from OS
             0 MiB allocation reported by mallinfo(arena+hblkhd)
           302 MiB available memory on the node where the printing process lives
------------------
     ethr =  6.68E-07,  avg # of iterations =  5.0

     negative rho (up, down):  8.743E-02 0.000E+00

     total cpu time spent up to now is        3.5 secs

     total energy              =      -2.30947236 Ry
     estimated scf accuracy    <       0.00000039 Ry

     iteration #  5     ecut=    20.00 Ry     beta= 0.70
     Davidson diagonalization with overlap

---- Real-time Memory Report at c_bands before calling an iterative solver
           271 MiB given to the printing process from OS
             0 MiB allocation reported by mallinfo(arena+hblkhd)
           292 MiB available memory on the node where the printing process lives
------------------
     ethr =  1.96E-08,  avg # of iterations =  2.0

     negative rho (up, down):  8.744E-02 0.000E+00

     total cpu time spent up to now is        4.1 secs

     total energy              =      -2.30946494 Ry
     estimated scf accuracy    <       0.00000003 Ry

     iteration #  6     ecut=    20.00 Ry     beta= 0.70
     Davidson diagonalization with overlap

---- Real-time Memory Report at c_bands before calling an iterative solver
           281 MiB given to the printing process from OS
             0 MiB allocation reported by mallinfo(arena+hblkhd)
           284 MiB available memory on the node where the printing process lives
------------------
     ethr =  1.59E-09,  avg # of iterations =  2.0

     negative rho (up, down):  8.745E-02 0.000E+00

     total cpu time spent up to now is        4.7 secs

     End of self-consistent calculation

          k =-0.5000-0.5000-0.5000 ( 40800 PWs)   bands (ev):

   -10.1749  -1.4067

     occupation numbers 
     1.0000   0.0000

     highest occupied, lowest unoccupied level (ev):   -10.1749   -1.4067

!    total energy              =      -2.30945250 Ry
     estimated scf accuracy    <          3.6E-09 Ry

     The total energy is the sum of the following terms:
     one-electron contribution =      -4.03698081 Ry
     hartree contribution      =       2.16095928 Ry
     xc contribution           =      -1.34617474 Ry
     ewald contribution        =       0.91274377 Ry

     convergence has been achieved in   6 iterations

     Forces acting on atoms (cartesian axes, Ry/au):

     atom    1 type  1   force =     0.09333804    0.00000000    0.00000000
     atom    2 type  1   force =    -0.09333804    0.00000000    0.00000000
     The non-local contrib.  to forces
     atom    1 type  1   force =     0.09716436    0.00000000    0.00000000
     atom    2 type  1   force =    -0.09721946    0.00000000    0.00000000
     The ionic contribution  to forces
     atom    1 type  1   force =    -0.83243781   -0.00000000   -0.00000000
     atom    2 type  1   force =     0.83243781    0.00000000   -0.00000000
     The local contribution  to forces
     atom    1 type  1   force =     0.82861712    0.00000000    0.00000000
     atom    2 type  1   force =    -0.82856613    0.00000000    0.00000000
     The core correction contribution to forces
     atom    1 type  1   force =     0.00000000    0.00000000    0.00000000
     atom    2 type  1   force =     0.00000000    0.00000000    0.00000000
     The Hubbard contrib.    to forces
     atom    1 type  1   force =     0.00000000    0.00000000    0.00000000
     atom    2 type  1   force =     0.00000000    0.00000000    0.00000000
     The SCF correction term to forces
     atom    1 type  1   force =    -0.00015525   -0.00000000    0.00000000
     atom    2 type  1   force =    -0.00013988   -0.00000000    0.00000000

     Total force =     0.132000     Total SCF correction =     0.000209

     BFGS Geometry Optimization
     Energy error            =      0.0E+00 Ry
     Gradient error          =      9.3E-02 Ry/Bohr

     number of scf cycles    =   1
     number of bfgs steps    =   0

     energy             new  =      -2.3094524967 Ry

     new trust radius        =       0.0933380356 bohr
     new conv_thr            =       0.0000000100 Ry


ATOMIC_POSITIONS (angstrom)
H             0.0493923613        0.0000000000        0.0000000000
H             0.7706076387        0.0000000000        0.0000000000



     Writing config-only to output data dir ./.save/
     NEW-OLD atomic charge density approx. for the potential

     negative rho (up, down):  8.256E-02 0.000E+00

     total cpu time spent up to now is        5.3 secs

     Self-consistent Calculation

     iteration #  1     ecut=    20.00 Ry     beta= 0.70
     Davidson diagonalization with overlap

---- Real-time Memory Report at c_bands before calling an iterative solver
           287 MiB given to the printing process from OS
             0 MiB allocation reported by mallinfo(arena+hblkhd)
           415 MiB available memory on the node where the printing process lives
------------------
     ethr =  1.00E-06,  avg # of iterations =  5.0

     negative rho (up, down):  9.060E-02 0.000E+00

     total cpu time spent up to now is        6.1 secs

     total energy              =      -2.31213834 Ry
     estimated scf accuracy    <       0.00252382 Ry

     iteration #  2     ecut=    20.00 Ry     beta= 0.70
     Davidson diagonalization with overlap

---- Real-time Memory Report at c_bands before calling an iterative solver
           287 MiB given to the printing process from OS
             0 MiB allocation reported by mallinfo(arena+hblkhd)
           318 MiB available memory on the node where the printing process lives
------------------
     ethr =  1.26E-04,  avg # of iterations =  1.0

     negative rho (up, down):  9.254E-02 0.000E+00

     total cpu time spent up to now is        6.7 secs

     total energy              =      -2.31113085 Ry
     estimated scf accuracy    <       0.00002881 Ry

     iteration #  3     ecut=    20.00 Ry     beta= 0.70
     Davidson diagonalization with overlap

---- Real-time Memory Report at c_bands before calling an iterative solver
           287 MiB given to the printing process from OS
             0 MiB allocation reported by mallinfo(arena+hblkhd)
           308 MiB available memory on the node where the printing process lives
------------------
     ethr =  1.44E-06,  avg # of iterations =  5.0

     negative rho (up, down):  9.293E-02 0.000E+00

     total cpu time spent up to now is        7.4 secs

     total energy              =      -2.31084628 Ry
     estimated scf accuracy    <       0.00000110 Ry

     iteration #  4     ecut=    20.00 Ry     beta= 0.70
     Davidson diagonalization with overlap

---- Real-time Memory Report at c_bands before calling an iterative solver
           287 MiB given to the printing process from OS
             0 MiB allocation reported by mallinfo(arena+hblkhd)
           298 MiB available memory on the node where the printing process lives
------------------
     ethr =  5.51E-08,  avg # of iterations =  2.0

     negative rho (up, down):  9.293E-02 0.000E+00

     total cpu time spent up to now is        8.0 secs

     total energy              =      -2.31084124 Ry
     estimated scf accuracy    <       0.00000002 Ry

     iteration #  5     ecut=    20.00 Ry     beta= 0.70
     Davidson diagonalization with overlap

---- Real-time Memory Report at c_bands before calling an iterative solver
           287 MiB given to the printing process from OS
             0 MiB allocation reported by mallinfo(arena+hblkhd)
           288 MiB available memory on the node where the printing process lives
------------------
     ethr =  1.11E-09,  avg # of iterations =  3.0

     negative rho (up, down):  9.292E-02 0.000E+00

     total cpu time spent up to now is        8.6 secs

     End of self-consistent calculation

          k =-0.5000-0.5000-0.5000 ( 40800 PWs)   bands (ev):

   -10.6484  -1.3620

     occupation numbers 
     1.0000   0.0000

     highest occupied, lowest unoccupied level (ev):   -10.6484   -1.3620

!    total energy              =      -2.31086372 Ry
     estimated scf accuracy    <          5.4E-09 Ry

     The total energy is the sum of the following terms:
     one-electron contribution =      -4.28427756 Ry
     hartree contribution      =       2.29025511 Ry
     xc contribution           =      -1.40628377 Ry
     ewald contribution        =       1.08944250 Ry

     convergence has been achieved in   5 iterations

     Forces acting on atoms (cartesian axes, Ry/au):

     atom    1 type  1   force =    -0.04673186    0.00000000    0.00000000
     atom    2 type  1   force =     0.04673186    0.00000000    0.00000000
     The non-local contrib.  to forces
     atom    1 type  1   force =     0.10038854    0.00000000    0.00000000
     atom    2 type  1   force =    -0.09975207    0.00000000    0.00000000
     The ionic contribution  to forces
     atom    1 type  1   force =    -1.07629365   -0.00000000   -0.00000000
     atom    2 type  1   force =     1.07629365    0.00000000   -0.00000000
     The local contribution  to forces
     atom    1 type  1   force =     0.92958863    0.00000000    0.00000000
     atom    2 type  1   force =    -0.92956404    0.00000000    0.00000000
     The core correction contribution to forces
     atom    1 type  1   force =     0.00000000    0.00000000    0.00000000
     atom    2 type  1   force =     0.00000000    0.00000000    0.00000000
     The Hubbard contrib.    to forces
     atom    1 type  1   force =     0.00000000    0.00000000    0.00000000
     atom    2 type  1   force =     0.00000000    0.00000000    0.00000000
     The SCF correction term to forces
     atom    1 type  1   force =    -0.00006231    0.00000000    0.00000000
     atom    2 type  1   force =     0.00010740    0.00000000    0.00000000

     Total force =     0.066089     Total SCF correction =     0.000124
     Energy error            =      1.4E-03 Ry
     Gradient error          =      4.7E-02 Ry/Bohr

     number of scf cycles    =   2
     number of bfgs steps    =   1

     energy             old  =      -2.3094524967 Ry
     energy             new  =      -2.3108637165 Ry

     CASE: energy            _new < energy            _old

     new trust radius        =       0.0311405978 bohr
     new conv_thr            =       0.0000000014 Ry


ATOMIC_POSITIONS (angstrom)
H             0.0329134666        0.0000000000        0.0000000000
H             0.7870865334        0.0000000000        0.0000000000



     Writing config-only to output data dir ./.save/
     NEW-OLD atomic charge density approx. for the potential

     negative rho (up, down):  9.394E-02 0.000E+00

     total cpu time spent up to now is        9.3 secs

     Self-consistent Calculation

     iteration #  1     ecut=    20.00 Ry     beta= 0.70
     Davidson diagonalization with overlap

---- Real-time Memory Report at c_bands before calling an iterative solver
           287 MiB given to the printing process from OS
             0 MiB allocation reported by mallinfo(arena+hblkhd)
           415 MiB available memory on the node where the printing process lives
------------------
     ethr =  1.00E-06,  avg # of iterations =  3.0

     negative rho (up, down):  9.183E-02 0.000E+00

     total cpu time spent up to now is       10.0 secs

     total energy              =      -2.31269567 Ry
     estimated scf accuracy    <       0.00030786 Ry

     iteration #  2     ecut=    20.00 Ry     beta= 0.70
     Davidson diagonalization with overlap

---- Real-time Memory Report at c_bands before calling an iterative solver
           287 MiB given to the printing process from OS
             0 MiB allocation reported by mallinfo(arena+hblkhd)
           318 MiB available memory on the node where the printing process lives
------------------
     ethr =  1.54E-05,  avg # of iterations =  1.0

     negative rho (up, down):  9.148E-02 0.000E+00

     total cpu time spent up to now is       10.6 secs

     total energy              =      -2.31296970 Ry
     estimated scf accuracy    <       0.00000395 Ry

     iteration #  3     ecut=    20.00 Ry     beta= 0.70
     Davidson diagonalization with overlap

---- Real-time Memory Report at c_bands before calling an iterative solver
           287 MiB given to the printing process from OS
             0 MiB allocation reported by mallinfo(arena+hblkhd)
           308 MiB available memory on the node where the printing process lives
------------------
     ethr =  1.98E-07,  avg # of iterations =  2.0

     negative rho (up, down):  9.148E-02 0.000E+00

     total cpu time spent up to now is       11.2 secs

     total energy              =      -2.31299752 Ry
     estimated scf accuracy    <       0.00000021 Ry

     iteration #  4     ecut=    20.00 Ry     beta= 0.70
     Davidson diagonalization with overlap

---- Real-time Memory Report at c_bands before calling an iterative solver
           287 MiB given to the printing process from OS
             0 MiB allocation reported by mallinfo(arena+hblkhd)
           298 MiB available memory on the node where the printing process lives
------------------
     ethr =  1.07E-08,  avg # of iterations =  2.0

     negative rho (up, down):  9.147E-02 0.000E+00

     total cpu time spent up to now is       11.8 secs

     total energy              =      -2.31299736 Ry
     estimated scf accuracy    <       0.00000001 Ry

     iteration #  5     ecut=    20.00 Ry     beta= 0.70
     Davidson diagonalization with overlap

---- Real-time Memory Report at c_bands before calling an iterative solver
           287 MiB given to the printing process from OS
             0 MiB allocation reported by mallinfo(arena+hblkhd)
           288 MiB available memory on the node where the printing process lives
------------------
     ethr =  7.05E-10,  avg # of iterations =  3.0

     negative rho (up, down):  9.147E-02 0.000E+00

     total cpu time spent up to now is       12.5 secs

     total energy              =      -2.31299797 Ry
     estimated scf accuracy    <          1.7E-09 Ry

     iteration #  6     ecut=    20.00 Ry     beta= 0.70
     Davidson diagonalization with overlap

---- Real-time Memory Report at c_bands before calling an iterative solver
           288 MiB given to the printing process from OS
             0 MiB allocation reported by mallinfo(arena+hblkhd)
           278 MiB available memory on the node where the printing process lives
------------------
     ethr =  8.58E-11,  avg # of iterations =  4.0

     negative rho (up, down):  9.147E-02 0.000E+00

     total cpu time spent up to now is       13.2 secs

     total energy              =      -2.31299949 Ry
     estimated scf accuracy    <          5.2E-09 Ry

     iteration #  7     ecut=    20.00 Ry     beta= 0.70
     Davidson diagonalization with overlap

---- Real-time Memory Report at c_bands before calling an iterative solver
           298 MiB given to the printing process from OS
             0 MiB allocation reported by mallinfo(arena+hblkhd)
           268 MiB available memory on the node where the printing process lives
------------------
     ethr =  8.58E-11,  avg # of iterations =  4.0

     negative rho (up, down):  9.147E-02 0.000E+00

     total cpu time spent up to now is       13.8 secs

     End of self-consistent calculation

          k =-0.5000-0.5000-0.5000 ( 40800 PWs)   bands (ev):

   -10.4847  -1.3965

     occupation numbers 
     1.0000   0.0000

     highest occupied, lowest unoccupied level (ev):   -10.4847   -1.3965

!    total energy              =      -2.31299817 Ry
     estimated scf accuracy    <          1.5E-10 Ry

     The total energy is the sum of the following terms:
     one-electron contribution =      -4.19863552 Ry
     hartree contribution      =       2.24563337 Ry
     xc contribution           =      -1.38533681 Ry
     ewald contribution        =       1.02534079 Ry

     convergence has been achieved in   7 iterations

     Forces acting on atoms (cartesian axes, Ry/au):

     atom    1 type  1   force =     0.00519362    0.00000000    0.00000000
     atom    2 type  1   force =    -0.00519362    0.00000000    0.00000000
     The non-local contrib.  to forces
     atom    1 type  1   force =     0.09406563    0.00000000    0.00000000
     atom    2 type  1   force =    -0.09402953    0.00000000    0.00000000
     The ionic contribution  to forces
     atom    1 type  1   force =    -0.98422374   -0.00000000   -0.00000000
     atom    2 type  1   force =     0.98422374   -0.00000000   -0.00000000
     The local contribution  to forces
     atom    1 type  1   force =     0.89542048    0.00000000    0.00000000
     atom    2 type  1   force =    -0.89536236    0.00000000    0.00000000
     The core correction contribution to forces
     atom    1 type  1   force =     0.00000000    0.00000000    0.00000000
     atom    2 type  1   force =     0.00000000    0.00000000    0.00000000
     The Hubbard contrib.    to forces
     atom    1 type  1   force =     0.00000000    0.00000000    0.00000000
     atom    2 type  1   force =     0.00000000    0.00000000    0.00000000
     The SCF correction term to forces
     atom    1 type  1   force =    -0.00004896   -0.00000000    0.00000000
     atom    2 type  1   force =    -0.00000568   -0.00000000    0.00000000

     Total force =     0.007345     Total SCF correction =     0.000049
     Energy error            =      2.1E-03 Ry
     Gradient error          =      5.2E-03 Ry/Bohr

     number of scf cycles    =   3
     number of bfgs steps    =   2

     energy             old  =      -2.3108637165 Ry
     energy             new  =      -2.3129981724 Ry

     CASE: energy            _new < energy            _old

     new trust radius        =       0.0031147030 bohr
     new conv_thr            =       0.0000000005 Ry


ATOMIC_POSITIONS (angstrom)
H             0.0345616965        0.0000000000        0.0000000000
H             0.7854383035        0.0000000000        0.0000000000



     Writing config-only to output data dir ./.save/
     NEW-OLD atomic charge density approx. for the potential

     negative rho (up, down):  9.134E-02 0.000E+00

     total cpu time spent up to now is       14.5 secs

     Self-consistent Calculation

     iteration #  1     ecut=    20.00 Ry     beta= 0.70
     Davidson diagonalization with overlap

---- Real-time Memory Report at c_bands before calling an iterative solver
           298 MiB given to the printing process from OS
             0 MiB allocation reported by mallinfo(arena+hblkhd)
           415 MiB available memory on the node where the printing process lives
------------------
     ethr =  1.00E-06,  avg # of iterations =  2.0

     negative rho (up, down):  9.154E-02 0.000E+00

     total cpu time spent up to now is       15.1 secs

     total energy              =      -2.31296538 Ry
     estimated scf accuracy    <       0.00000245 Ry

     iteration #  2     ecut=    20.00 Ry     beta= 0.70
     Davidson diagonalization with overlap

---- Real-time Memory Report at c_bands before calling an iterative solver
           298 MiB given to the printing process from OS
             0 MiB allocation reported by mallinfo(arena+hblkhd)
           318 MiB available memory on the node where the printing process lives
------------------
     ethr =  1.23E-07,  avg # of iterations =  2.0

     negative rho (up, down):  9.162E-02 0.000E+00

     total cpu time spent up to now is       15.7 secs

     total energy              =      -2.31290804 Ry
     estimated scf accuracy    <       0.00000010 Ry

     iteration #  3     ecut=    20.00 Ry     beta= 0.70
     Davidson diagonalization with overlap

---- Real-time Memory Report at c_bands before calling an iterative solver
           298 MiB given to the printing process from OS
             0 MiB allocation reported by mallinfo(arena+hblkhd)
           308 MiB available memory on the node where the printing process lives
------------------
     ethr =  5.14E-09,  avg # of iterations =  3.0

     negative rho (up, down):  9.161E-02 0.000E+00

     total cpu time spent up to now is       16.4 secs

     total energy              =      -2.31291093 Ry
     estimated scf accuracy    <       0.00000001 Ry

     iteration #  4     ecut=    20.00 Ry     beta= 0.70
     Davidson diagonalization with overlap

---- Real-time Memory Report at c_bands before calling an iterative solver
           298 MiB given to the printing process from OS
             0 MiB allocation reported by mallinfo(arena+hblkhd)
           298 MiB available memory on the node where the printing process lives
------------------
     ethr =  6.81E-10,  avg # of iterations =  3.0

     negative rho (up, down):  9.160E-02 0.000E+00

     total cpu time spent up to now is       17.0 secs

     total energy              =      -2.31291368 Ry
     estimated scf accuracy    <          7.9E-09 Ry

     iteration #  5     ecut=    20.00 Ry     beta= 0.70
     Davidson diagonalization with overlap

---- Real-time Memory Report at c_bands before calling an iterative solver
           298 MiB given to the printing process from OS
             0 MiB allocation reported by mallinfo(arena+hblkhd)
           288 MiB available memory on the node where the printing process lives
------------------
     ethr =  3.94E-10,  avg # of iterations =  3.0

     negative rho (up, down):  9.159E-02 0.000E+00

     total cpu time spent up to now is       17.6 secs

     total energy              =      -2.31294132 Ry
     estimated scf accuracy    <          4.2E-09 Ry

     iteration #  6     ecut=    20.00 Ry     beta= 0.70
     Davidson diagonalization with overlap

---- Real-time Memory Report at c_bands before calling an iterative solver
           298 MiB given to the printing process from OS
             0 MiB allocation reported by mallinfo(arena+hblkhd)
           278 MiB available memory on the node where the printing process lives
------------------
     ethr =  2.08E-10,  avg # of iterations =  4.0

     negative rho (up, down):  9.160E-02 0.000E+00

     total cpu time spent up to now is       18.3 secs

     total energy              =      -2.31293140 Ry
     estimated scf accuracy    <       0.00000006 Ry

     iteration #  7     ecut=    20.00 Ry     beta= 0.70
     Davidson diagonalization with overlap

---- Real-time Memory Report at c_bands before calling an iterative solver
           298 MiB given to the printing process from OS
             0 MiB allocation reported by mallinfo(arena+hblkhd)
           268 MiB available memory on the node where the printing process lives
------------------
     ethr =  2.08E-10,  avg # of iterations =  3.0

     negative rho (up, down):  9.160E-02 0.000E+00

     total cpu time spent up to now is       19.0 secs

     total energy              =      -2.31292670 Ry
     estimated scf accuracy    <       0.00000002 Ry

     iteration #  8     ecut=    20.00 Ry     beta= 0.70
     Davidson diagonalization with overlap

---- Real-time Memory Report at c_bands before calling an iterative solver
           308 MiB given to the printing process from OS
             0 MiB allocation reported by mallinfo(arena+hblkhd)
           258 MiB available memory on the node where the printing process lives
------------------
     ethr =  2.08E-10,  avg # of iterations =  3.0

     negative rho (up, down):  9.160E-02 0.000E+00

     total cpu time spent up to now is       19.7 secs

     total energy              =      -2.31292483 Ry
     estimated scf accuracy    <       0.00000001 Ry

     iteration #  9     ecut=    20.00 Ry     beta= 0.70
     Davidson diagonalization with overlap

---- Real-time Memory Report at c_bands before calling an iterative solver
           318 MiB given to the printing process from OS
             0 MiB allocation reported by mallinfo(arena+hblkhd)
           248 MiB available memory on the node where the printing process lives
------------------
     ethr =  2.08E-10,  avg # of iterations =  2.0

     negative rho (up, down):  9.160E-02 0.000E+00

     total cpu time spent up to now is       20.3 secs

     total energy              =      -2.31292474 Ry
     estimated scf accuracy    <          8.3E-09 Ry

     iteration # 10     ecut=    20.00 Ry     beta= 0.70
     Davidson diagonalization with overlap

---- Real-time Memory Report at c_bands before calling an iterative solver
           328 MiB given to the printing process from OS
             0 MiB allocation reported by mallinfo(arena+hblkhd)
           238 MiB available memory on the node where the printing process lives
------------------
     ethr =  2.08E-10,  avg # of iterations =  2.0

     negative rho (up, down):  9.160E-02 0.000E+00

     total cpu time spent up to now is       21.0 secs

     total energy              =      -2.31293299 Ry
     estimated scf accuracy    <          8.3E-09 Ry

     iteration # 11     ecut=    20.00 Ry     beta= 0.70
     Davidson diagonalization with overlap

---- Real-time Memory Report at c_bands before calling an iterative solver
           328 MiB given to the printing process from OS
             0 MiB allocation reported by mallinfo(arena+hblkhd)
           238 MiB available memory on the node where the printing process lives
------------------
     ethr =  2.08E-10,  avg # of iterations =  3.0

     negative rho (up, down):  9.160E-02 0.000E+00

     total cpu time spent up to now is       21.6 secs

     total energy              =      -2.31293322 Ry
     estimated scf accuracy    <       0.00000002 Ry

     iteration # 12     ecut=    20.00 Ry     beta= 0.70
     Davidson diagonalization with overlap

---- Real-time Memory Report at c_bands before calling an iterative solver
           328 MiB given to the printing process from OS
             0 MiB allocation reported by mallinfo(arena+hblkhd)
           238 MiB available memory on the node where the printing process lives
------------------
     ethr =  2.08E-10,  avg # of iterations =  4.0

     negative rho (up, down):  9.160E-02 0.000E+00

     total cpu time spent up to now is       22.3 secs

     total energy              =      -2.31293368 Ry
     estimated scf accuracy    <          4.4E-09 Ry

     iteration # 13     ecut=    20.00 Ry     beta= 0.70
     Davidson diagonalization with overlap

---- Real-time Memory Report at c_bands before calling an iterative solver
           328 MiB given to the printing process from OS
             0 MiB allocation reported by mallinfo(arena+hblkhd)
           238 MiB available memory on the node where the printing process lives
------------------
     ethr =  2.08E-10,  avg # of iterations =  1.0

     negative rho (up, down):  9.161E-02 0.000E+00

     total cpu time spent up to now is       23.0 secs

     total energy              =      -2.31292058 Ry
     estimated scf accuracy    <          3.8E-09 Ry

     iteration # 14     ecut=    20.00 Ry     beta= 0.70
     Davidson diagonalization with overlap

---- Real-time Memory Report at c_bands before calling an iterative solver
           328 MiB given to the printing process from OS
             0 MiB allocation reported by mallinfo(arena+hblkhd)
           238 MiB available memory on the node where the printing process lives
------------------
     ethr =  1.91E-10,  avg # of iterations =  4.0

     negative rho (up, down):  9.161E-02 0.000E+00

     total cpu time spent up to now is       23.7 secs

     total energy              =      -2.31292006 Ry
     estimated scf accuracy    <       0.00000001 Ry

     iteration # 15     ecut=    20.00 Ry     beta= 0.70
     Davidson diagonalization with overlap

---- Real-time Memory Report at c_bands before calling an iterative solver
           328 MiB given to the printing process from OS
             0 MiB allocation reported by mallinfo(arena+hblkhd)
           238 MiB available memory on the node where the printing process lives
------------------
     ethr =  1.91E-10,  avg # of iterations =  3.0

     negative rho (up, down):  9.160E-02 0.000E+00

     total cpu time spent up to now is       24.4 secs

     total energy              =      -2.31293257 Ry
     estimated scf accuracy    <          6.8E-09 Ry

     iteration # 16     ecut=    20.00 Ry     beta= 0.70
     Davidson diagonalization with overlap

---- Real-time Memory Report at c_bands before calling an iterative solver
           328 MiB given to the printing process from OS
             0 MiB allocation reported by mallinfo(arena+hblkhd)
           238 MiB available memory on the node where the printing process lives
------------------
     ethr =  1.91E-10,  avg # of iterations =  4.0

     negative rho (up, down):  9.160E-02 0.000E+00

     total cpu time spent up to now is       25.1 secs

     total energy              =      -2.31293122 Ry
     estimated scf accuracy    <          4.1E-09 Ry

     iteration # 17     ecut=    20.00 Ry     beta= 0.70
     Davidson diagonalization with overlap

---- Real-time Memory Report at c_bands before calling an iterative solver
           328 MiB given to the printing process from OS
             0 MiB allocation reported by mallinfo(arena+hblkhd)
           238 MiB available memory on the node where the printing process lives
------------------
     ethr =  1.91E-10,  avg # of iterations =  3.0

     negative rho (up, down):  9.161E-02 0.000E+00

     total cpu time spent up to now is       25.7 secs

     total energy              =      -2.31291403 Ry
     estimated scf accuracy    <          2.8E-09 Ry

     iteration # 18     ecut=    20.00 Ry     beta= 0.70
     Davidson diagonalization with overlap

---- Real-time Memory Report at c_bands before calling an iterative solver
           328 MiB given to the printing process from OS
             0 MiB allocation reported by mallinfo(arena+hblkhd)
           238 MiB available memory on the node where the printing process lives
------------------
     ethr =  1.41E-10,  avg # of iterations =  4.0

     negative rho (up, down):  9.161E-02 0.000E+00

     total cpu time spent up to now is       26.4 secs

     total energy              =      -2.31292157 Ry
     estimated scf accuracy    <          2.6E-09 Ry

     iteration # 19     ecut=    20.00 Ry     beta= 0.70
     Davidson diagonalization with overlap

---- Real-time Memory Report at c_bands before calling an iterative solver
           328 MiB given to the printing process from OS
             0 MiB allocation reported by mallinfo(arena+hblkhd)
           238 MiB available memory on the node where the printing process lives
------------------
     ethr =  1.31E-10,  avg # of iterations =  4.0

     negative rho (up, down):  9.161E-02 0.000E+00

     total cpu time spent up to now is       27.1 secs

     End of self-consistent calculation

          k =-0.5000-0.5000-0.5000 ( 40800 PWs)   bands (ev):

   -10.5015  -1.4001

     occupation numbers 
     1.0000   0.0000

     highest occupied, lowest unoccupied level (ev):   -10.5015   -1.4001

!    total energy              =      -2.31292589 Ry
     estimated scf accuracy    <          1.9E-10 Ry

     The total energy is the sum of the following terms:
     one-electron contribution =      -4.20700391 Ry
     hartree contribution      =       2.24993126 Ry
     xc contribution           =      -1.38735210 Ry
     ewald contribution        =       1.03149885 Ry

     convergence has been achieved in  19 iterations

     Forces acting on atoms (cartesian axes, Ry/au):

     atom    1 type  1   force =     0.00059946    0.00000000    0.00000000
     atom    2 type  1   force =    -0.00059946    0.00000000    0.00000000
     The non-local contrib.  to forces
     atom    1 type  1   force =     0.09454526    0.00000000    0.00000000
     atom    2 type  1   force =    -0.09477764    0.00000000    0.00000000
     The ionic contribution  to forces
     atom    1 type  1   force =    -0.99289037   -0.00000000   -0.00000000
     atom    2 type  1   force =     0.99289037    0.00000000   -0.00000000
     The local contribution  to forces
     atom    1 type  1   force =     0.89881304    0.00000000    0.00000000
     atom    2 type  1   force =    -0.89874270    0.00000000    0.00000000
     The core correction contribution to forces
     atom    1 type  1   force =     0.00000000    0.00000000    0.00000000
     atom    2 type  1   force =     0.00000000    0.00000000    0.00000000
     The Hubbard contrib.    to forces
     atom    1 type  1   force =     0.00000000    0.00000000    0.00000000
     atom    2 type  1   force =     0.00000000    0.00000000    0.00000000
     The SCF correction term to forces
     atom    1 type  1   force =     0.00009162   -0.00000000   -0.00000000
     atom    2 type  1   force =    -0.00000940    0.00000000    0.00000000

     Total force =     0.000848     Total SCF correction =     0.000092
     SCF correction compared to forces is large: reduce conv_thr to get better values
     Energy error            =      7.2E-05 Ry
     Gradient error          =      6.0E-04 Ry/Bohr

     bfgs converged in   4 scf cycles and   3 bfgs steps
     (criteria: energy <  1.0E-04 Ry, force <  1.0E-03 Ry/Bohr)

     End of BFGS Geometry Optimization

     Final energy             =      -2.3129258949 Ry

     File ./.bfgs deleted, as requested
Begin final coordinates

ATOMIC_POSITIONS (angstrom)
H             0.0345616965        0.0000000000        0.0000000000
H             0.7854383035        0.0000000000        0.0000000000
End final coordinates



     Writing all to output data dir ./.save/

     init_run     :      0.59s CPU      0.62s WALL (       1 calls)
     electrons    :     24.45s CPU     24.59s WALL (       4 calls)
     update_pot   :      1.25s CPU      1.27s WALL (       3 calls)
     forces       :      0.57s CPU      0.58s WALL (       4 calls)

     Called by init_run:
     wfcinit      :      0.05s CPU      0.05s WALL (       1 calls)
     wfcinit:atom :      0.00s CPU      0.00s WALL (       1 calls)
     wfcinit:wfcr :      0.05s CPU      0.05s WALL (       1 calls)
     potinit      :      0.36s CPU      0.38s WALL (       1 calls)
     hinit0       :      0.03s CPU      0.04s WALL (       1 calls)

     Called by electrons:
     c_bands      :      5.67s CPU      5.68s WALL (      37 calls)
     sum_band     :      2.92s CPU      2.93s WALL (      37 calls)
     v_of_rho     :     13.97s CPU     14.06s WALL (      41 calls)
     v_h          :      0.81s CPU      0.81s WALL (      41 calls)
     v_xc         :     13.15s CPU     13.25s WALL (      41 calls)
     newd         :      1.00s CPU      1.00s WALL (      41 calls)
     mix_rho      :      1.98s CPU      2.02s WALL (      37 calls)

     Called by c_bands:
     init_us_2    :      0.08s CPU      0.08s WALL (      75 calls)
     init_us_2:cp :      0.08s CPU      0.08s WALL (      75 calls)
     cegterg      :      5.61s CPU      5.62s WALL (      37 calls)

     Called by sum_band:
     sum_band:wei :      0.00s CPU      0.00s WALL (      37 calls)
     sum_band:loo :      0.88s CPU      0.88s WALL (      37 calls)
     sum_band:buf :      0.00s CPU      0.00s WALL (      37 calls)
     sum_band:ini :      0.04s CPU      0.04s WALL (      37 calls)
     sum_band:cal :      0.01s CPU      0.01s WALL (      37 calls)
     sum_band:bec :      0.00s CPU      0.00s WALL (      37 calls)
     addusdens    :      0.24s CPU      0.25s WALL (      37 calls)
     addusd:skk   :      0.07s CPU      0.07s WALL (      37 calls)
     addusd:dgemm :      0.05s CPU      0.05s WALL (      37 calls)
     addusd:qvan2 :      0.06s CPU      0.07s WALL (      37 calls)

     Called by *egterg:
     cdiaghg      :      0.00s CPU      0.00s WALL (     151 calls)
     cegterg:over :      0.07s CPU      0.07s WALL (     117 calls)
     cegterg:upda :      0.05s CPU      0.05s WALL (     117 calls)
     cegterg:last :      0.10s CPU      0.10s WALL (      93 calls)
     h_psi        :      5.33s CPU      5.34s WALL (     155 calls)
     s_psi        :      0.03s CPU      0.03s WALL (     155 calls)
     g_psi        :      0.02s CPU      0.02s WALL (     117 calls)

     Called by h_psi:
     h_psi:calbec :      0.04s CPU      0.04s WALL (     155 calls)
     vloc_psi     :      5.25s CPU      5.26s WALL (     155 calls)
     add_vuspsi   :      0.03s CPU      0.03s WALL (     155 calls)

     General routines
     calbec       :      0.05s CPU      0.05s WALL (     208 calls)
     fft          :      7.14s CPU      7.14s WALL (     462 calls)
     ffts         :      0.59s CPU      0.60s WALL (      37 calls)
     fftw         :      5.43s CPU      5.44s WALL (     556 calls)


     PWSCF        :     27.07s CPU     27.29s WALL


   This run was terminated on:   3:24:32  28Feb2022            

=------------------------------------------------------------------------------=
   JOB DONE.
=------------------------------------------------------------------------------=
