
     Program PWSCF v.7.0 starts on 28Feb2022 at  3:12: 8 

     This program is part of the open-source Quantum ESPRESSO suite
     for quantum simulation of materials; please cite
         "P. Giannozzi et al., J. Phys.:Condens. Matter 21 395502 (2009);
         "P. Giannozzi et al., J. Phys.:Condens. Matter 29 465901 (2017);
         "P. Giannozzi et al., J. Chem. Phys. 152 154105 (2020);
          URL http://www.quantum-espresso.org", 
     in publications or presentations arising from this work. More details at
     http://www.quantum-espresso.org/quote

     Serial version
     554 MiB available memory on the printing compute node when the environment starts

     Waiting for input...
     Reading input from standard input

     Current dimensions of program PWSCF are:
     Max number of different atomic species (ntypx) = 10
     Max number of k-points (npk) =  40000
     Max angular momentum in pseudopotentials (lmaxx) =  4

     File ./.update deleted, as requested

     File ./.bfgs deleted, as requested

    ============================================================
    |  pseudopotential report for atomic species:  1           |
    |        pseudo potential version   7   3   2              |
    ------------------------------------------------------------
    |  hydrogen            PBE                  exchange-corr  |
    |  z =   1.    zv( 1) =   1.    exfact =   5.00000         |
    |  ifpcor =  0           atomic energy =  -0.91772 Ry      |
    |  index    orbital      occupation    energy              |
    |    1        100           1.00       -0.48               |
    |  rinner =  0.5000                                        |
    |    new generation scheme:                                |
    |    nbeta =  1     kkbeta =  271     rcloc =    0.6000    |
    |    ibeta    l     epsilon   rcut                         |
    |      1       0      -0.48   0.80                         |
    ============================================================

     IMPORTANT: XC functional enforced from input :
     Exchange-correlation= BLYP
                           (   1   3   1   3   0   0   0)
     Any further DFT definition will be discarded
     Please, verify this is what you really want


     G-vector sticks info
     --------------------
     sticks:   dense  smooth     PW     G-vecs:    dense   smooth      PW
     Sum        5721    5721   1565               326029   326029   45961

     Using Slab Decomposition



     bravais-lattice index     =            1
     lattice parameter (alat)  =      30.0000  a.u.
     unit-cell volume          =   27000.0000 (a.u.)^3
     number of atoms/cell      =            2
     number of atomic types    =            1
     number of electrons       =         2.00
     number of Kohn-Sham states=            2
     kinetic-energy cutoff     =      20.0000  Ry
     charge density cutoff     =      80.0000  Ry
     scf convergence threshold =      1.0E-08
     mixing beta               =       0.7000
     number of iterations used =            8  plain     mixing
     energy convergence thresh.=      1.0E-04
     force convergence thresh. =      1.0E-03
     Exchange-correlation= BLYP
                           (   1   3   1   3   0   0   0)
     nstep                     =           50


     celldm(1)=  30.000000  celldm(2)=   0.000000  celldm(3)=   0.000000
     celldm(4)=   0.000000  celldm(5)=   0.000000  celldm(6)=   0.000000

     crystal axes: (cart. coord. in units of alat)
               a(1) = (   1.000000   0.000000   0.000000 )  
               a(2) = (   0.000000   1.000000   0.000000 )  
               a(3) = (   0.000000   0.000000   1.000000 )  

     reciprocal axes: (cart. coord. in units 2 pi/alat)
               b(1) = (  1.000000  0.000000  0.000000 )  
               b(2) = (  0.000000  1.000000  0.000000 )  
               b(3) = (  0.000000  0.000000  1.000000 )  


     PseudoPot. # 1 for hy read from file:
     /root/q-e/pseudo/H_US.van
     MD5 check sum: a9a9bfe98ff56cf4de197d71fc46bb44
     Pseudo is Ultrasoft, Zval =  1.0
     Generated by Vanderbilt code, v. 7.3.2
     Using radial grid of  399 points,  1 beta functions with: 
                l(1) =   0
     Q(r) pseudized with  8 coefficients,  rinner =    0.500

     atomic species   valence    mass     pseudopotential
        H              1.00     1.00784     hy( 1.00)

      8 Sym. Ops. (no inversion) found


                                    s                        frac. trans.

      isym =  1     identity                                     

 cryst.   s( 1) = (     1          0          0      )
                  (     0          1          0      )
                  (     0          0          1      )

 cart.    s( 1) = (  1.0000000  0.0000000  0.0000000 )
                  (  0.0000000  1.0000000  0.0000000 )
                  (  0.0000000  0.0000000  1.0000000 )


      isym =  2     180 deg rotation - cart. axis [1,0,0]        

 cryst.   s( 2) = (     1          0          0      )
                  (     0         -1          0      )
                  (     0          0         -1      )

 cart.    s( 2) = (  1.0000000  0.0000000  0.0000000 )
                  (  0.0000000 -1.0000000  0.0000000 )
                  (  0.0000000  0.0000000 -1.0000000 )


      isym =  3      90 deg rotation - cart. axis [-1,0,0]       

 cryst.   s( 3) = (     1          0          0      )
                  (     0          0         -1      )
                  (     0          1          0      )

 cart.    s( 3) = (  1.0000000  0.0000000  0.0000000 )
                  (  0.0000000  0.0000000  1.0000000 )
                  (  0.0000000 -1.0000000  0.0000000 )


      isym =  4      90 deg rotation - cart. axis [1,0,0]        

 cryst.   s( 4) = (     1          0          0      )
                  (     0          0          1      )
                  (     0         -1          0      )

 cart.    s( 4) = (  1.0000000  0.0000000  0.0000000 )
                  (  0.0000000  0.0000000 -1.0000000 )
                  (  0.0000000  1.0000000  0.0000000 )


      isym =  5     inv. 180 deg rotation - cart. axis [0,0,1]   

 cryst.   s( 5) = (     1          0          0      )
                  (     0          1          0      )
                  (     0          0         -1      )

 cart.    s( 5) = (  1.0000000  0.0000000  0.0000000 )
                  (  0.0000000  1.0000000  0.0000000 )
                  (  0.0000000  0.0000000 -1.0000000 )


      isym =  6     inv. 180 deg rotation - cart. axis [0,1,0]   

 cryst.   s( 6) = (     1          0          0      )
                  (     0         -1          0      )
                  (     0          0          1      )

 cart.    s( 6) = (  1.0000000  0.0000000  0.0000000 )
                  (  0.0000000 -1.0000000  0.0000000 )
                  (  0.0000000  0.0000000  1.0000000 )


      isym =  7     inv. 180 deg rotation - cart. axis [0,1,1]   

 cryst.   s( 7) = (     1          0          0      )
                  (     0          0         -1      )
                  (     0         -1          0      )

 cart.    s( 7) = (  1.0000000  0.0000000  0.0000000 )
                  (  0.0000000  0.0000000 -1.0000000 )
                  (  0.0000000 -1.0000000  0.0000000 )


      isym =  8     inv. 180 deg rotation - cart. axis [0,1,-1]  

 cryst.   s( 8) = (     1          0          0      )
                  (     0          0          1      )
                  (     0          1          0      )

 cart.    s( 8) = (  1.0000000  0.0000000  0.0000000 )
                  (  0.0000000  0.0000000  1.0000000 )
                  (  0.0000000  1.0000000  0.0000000 )


     point group C_4v (4mm) 
     there are  5 classes
     the character table:

       E     2C4   C2    2s_v  2s_d 
A_1    1.00  1.00  1.00  1.00  1.00
A_2    1.00  1.00  1.00 -1.00 -1.00
B_1    1.00 -1.00  1.00  1.00 -1.00
B_2    1.00 -1.00  1.00 -1.00  1.00
E      2.00  0.00 -2.00  0.00  0.00

     the symmetry operations in each class and the name of the first element:

     E        1
          identity                                               
     2C4      3    4
           90 deg rotation - cart. axis [-1,0,0]                 
     C2       2
          180 deg rotation - cart. axis [1,0,0]                  
     2s_v     5    6
          inv. 180 deg rotation - cart. axis [0,0,1]             
     2s_d     7    8
          inv. 180 deg rotation - cart. axis [0,1,1]             

   Cartesian axes

     site n.     atom                  positions (alat units)
         1           H   tau(   1) = (   0.0000000   0.0000000   0.0000000  )
         2           H   tau(   2) = (   0.0466132   0.0000000   0.0000000  )

   Crystallographic axes

     site n.     atom                  positions (cryst. coord.)
         1           H   tau(   1) = (  0.0000000  0.0000000  0.0000000  )
         2           H   tau(   2) = (  0.0466132  0.0000000  0.0000000  )

     number of k points=     1
                       cart. coord. in units 2pi/alat
        k(    1) = (  -0.5000000  -0.5000000  -0.5000000), wk =   2.0000000

                       cryst. coord.
        k(    1) = (  -0.5000000  -0.5000000  -0.5000000), wk =   2.0000000

     Dense  grid:   326029 G-vectors     FFT dimensions: (  90,  90,  90)

     Dynamical RAM for                 wfc:       1.24 MB

     Dynamical RAM for     wfc (w. buffer):       1.24 MB

     Dynamical RAM for           str. fact:       4.97 MB

     Dynamical RAM for           local pot:       0.00 MB

     Dynamical RAM for          nlocal pot:       1.24 MB

     Dynamical RAM for                qrad:       0.01 MB

     Dynamical RAM for          rho,v,vnew:      31.61 MB

     Dynamical RAM for               rhoin:      10.54 MB

     Dynamical RAM for            rho*nmix:      79.60 MB

     Dynamical RAM for           G-vectors:      21.14 MB

     Dynamical RAM for          h,s,v(r/c):       0.00 MB

     Dynamical RAM for          <psi|beta>:       0.00 MB

     Dynamical RAM for                 psi:       2.49 MB

     Dynamical RAM for                hpsi:       2.49 MB

     Dynamical RAM for                spsi:       2.49 MB

     Dynamical RAM for      wfcinit/wfcrot:       2.49 MB

     Dynamical RAM for           addusdens:      29.85 MB

     Dynamical RAM for          addusforce:      42.29 MB

     Estimated static dynamical RAM per process >     108.52 MB

     Estimated max dynamical RAM per process >     230.40 MB

     Initial potential from superposition of free atoms

     starting charge       2.0000, renormalised to       2.0000

     negative rho (up, down):  5.451E-02 0.000E+00
     Starting wfcs are    2 randomized atomic wfcs

     total cpu time spent up to now is        0.6 secs

     Self-consistent Calculation

     iteration #  1     ecut=    20.00 Ry     beta= 0.70
     Davidson diagonalization with overlap

---- Real-time Memory Report at c_bands before calling an iterative solver
           196 MiB given to the printing process from OS
             0 MiB allocation reported by mallinfo(arena+hblkhd)
           426 MiB available memory on the node where the printing process lives
------------------
     ethr =  1.00E-02,  avg # of iterations =  5.0

     negative rho (up, down):  8.513E-02 0.000E+00

     total cpu time spent up to now is        1.3 secs

     total energy              =      -2.30856625 Ry
     estimated scf accuracy    <       0.12300876 Ry

     iteration #  2     ecut=    20.00 Ry     beta= 0.70
     Davidson diagonalization with overlap

---- Real-time Memory Report at c_bands before calling an iterative solver
           242 MiB given to the printing process from OS
             0 MiB allocation reported by mallinfo(arena+hblkhd)
           325 MiB available memory on the node where the printing process lives
------------------
     ethr =  6.15E-03,  avg # of iterations =  1.0

     negative rho (up, down):  9.195E-02 0.000E+00

     total cpu time spent up to now is        1.9 secs

     total energy              =      -2.31270847 Ry
     estimated scf accuracy    <       0.00138512 Ry

     iteration #  3     ecut=    20.00 Ry     beta= 0.70
     Davidson diagonalization with overlap

---- Real-time Memory Report at c_bands before calling an iterative solver
           252 MiB given to the printing process from OS
             0 MiB allocation reported by mallinfo(arena+hblkhd)
           315 MiB available memory on the node where the printing process lives
------------------
     ethr =  6.93E-05,  avg # of iterations =  9.0

     negative rho (up, down):  9.201E-02 0.000E+00

     total cpu time spent up to now is        2.7 secs

     total energy              =      -2.31301583 Ry
     estimated scf accuracy    <       0.00001318 Ry

     iteration #  4     ecut=    20.00 Ry     beta= 0.70
     Davidson diagonalization with overlap

---- Real-time Memory Report at c_bands before calling an iterative solver
           262 MiB given to the printing process from OS
             0 MiB allocation reported by mallinfo(arena+hblkhd)
           304 MiB available memory on the node where the printing process lives
------------------
     ethr =  6.59E-07,  avg # of iterations =  5.0

     negative rho (up, down):  9.216E-02 0.000E+00

     total cpu time spent up to now is        3.4 secs

     total energy              =      -2.31289901 Ry
     estimated scf accuracy    <       0.00000027 Ry

     iteration #  5     ecut=    20.00 Ry     beta= 0.70
     Davidson diagonalization with overlap

---- Real-time Memory Report at c_bands before calling an iterative solver
           272 MiB given to the printing process from OS
             0 MiB allocation reported by mallinfo(arena+hblkhd)
           295 MiB available memory on the node where the printing process lives
------------------
     ethr =  1.37E-08,  avg # of iterations =  2.0

     negative rho (up, down):  9.216E-02 0.000E+00

     total cpu time spent up to now is        4.1 secs

     total energy              =      -2.31289931 Ry
     estimated scf accuracy    <       0.00000001 Ry

     iteration #  6     ecut=    20.00 Ry     beta= 0.70
     Davidson diagonalization with overlap

---- Real-time Memory Report at c_bands before calling an iterative solver
           282 MiB given to the printing process from OS
             0 MiB allocation reported by mallinfo(arena+hblkhd)
           285 MiB available memory on the node where the printing process lives
------------------
     ethr =  6.20E-10,  avg # of iterations =  4.0

     negative rho (up, down):  9.215E-02 0.000E+00

     total cpu time spent up to now is        4.7 secs

     total energy              =      -2.31290616 Ry
     estimated scf accuracy    <       0.00000002 Ry

     iteration #  7     ecut=    20.00 Ry     beta= 0.70
     Davidson diagonalization with overlap

---- Real-time Memory Report at c_bands before calling an iterative solver
           292 MiB given to the printing process from OS
             0 MiB allocation reported by mallinfo(arena+hblkhd)
           275 MiB available memory on the node where the printing process lives
------------------
     ethr =  6.20E-10,  avg # of iterations =  3.0

     negative rho (up, down):  9.215E-02 0.000E+00

     total cpu time spent up to now is        5.3 secs

     End of self-consistent calculation

          k =-0.5000-0.5000-0.5000 ( 40800 PWs)   bands (ev):

   -10.5556  -1.3778

     occupation numbers 
     1.0000   0.0000

     highest occupied, lowest unoccupied level (ev):   -10.5556   -1.3778

!    total energy              =      -2.31290600 Ry
     estimated scf accuracy    <          1.6E-09 Ry

     The total energy is the sum of the following terms:
     one-electron contribution =      -4.23511914 Ry
     hartree contribution      =       2.26475718 Ry
     xc contribution           =      -1.39475073 Ry
     ewald contribution        =       1.05220669 Ry

     convergence has been achieved in   7 iterations

     Forces acting on atoms (cartesian axes, Ry/au):

     atom    1 type  1   force =    -0.01661572    0.00000000    0.00000000
     atom    2 type  1   force =     0.01661572    0.00000000    0.00000000
     The non-local contrib.  to forces
     atom    1 type  1   force =     0.09544746    0.00000000    0.00000000
     atom    2 type  1   force =    -0.09566530    0.00000000    0.00000000
     The ionic contribution  to forces
     atom    1 type  1   force =    -1.02231174   -0.00000000   -0.00000000
     atom    2 type  1   force =     1.02231174   -0.00000000   -0.00000000
     The local contribution  to forces
     atom    1 type  1   force =     0.91012814    0.00000000    0.00000000
     atom    2 type  1   force =    -0.91017497    0.00000000    0.00000000
     The core correction contribution to forces
     atom    1 type  1   force =     0.00000000    0.00000000    0.00000000
     atom    2 type  1   force =     0.00000000    0.00000000    0.00000000
     The Hubbard contrib.    to forces
     atom    1 type  1   force =     0.00000000    0.00000000    0.00000000
     atom    2 type  1   force =     0.00000000    0.00000000    0.00000000
     The SCF correction term to forces
     atom    1 type  1   force =     0.00019363    0.00000000   -0.00000000
     atom    2 type  1   force =     0.00021747   -0.00000000   -0.00000000

     Total force =     0.023498     Total SCF correction =     0.000291

     BFGS Geometry Optimization
     Energy error            =      0.0E+00 Ry
     Gradient error          =      1.7E-02 Ry/Bohr

     number of scf cycles    =   1
     number of bfgs steps    =   0

     energy             new  =      -2.3129060021 Ry

     new trust radius        =       0.0166157224 bohr
     new conv_thr            =       0.0000000100 Ry


ATOMIC_POSITIONS (angstrom)
H            -0.0087926616        0.0000000000        0.0000000000
H             0.7487926616        0.0000000000        0.0000000000



     Writing config-only to output data dir ./.save/
     NEW-OLD atomic charge density approx. for the potential

     negative rho (up, down):  9.274E-02 0.000E+00

     total cpu time spent up to now is        6.0 secs

     Self-consistent Calculation

     iteration #  1     ecut=    20.00 Ry     beta= 0.70
     Davidson diagonalization with overlap

---- Real-time Memory Report at c_bands before calling an iterative solver
           298 MiB given to the printing process from OS
             0 MiB allocation reported by mallinfo(arena+hblkhd)
           416 MiB available memory on the node where the printing process lives
------------------
     ethr =  1.00E-06,  avg # of iterations =  3.0

     negative rho (up, down):  9.157E-02 0.000E+00

     total cpu time spent up to now is        6.6 secs

     total energy              =      -2.31332705 Ry
     estimated scf accuracy    <       0.00008367 Ry

     iteration #  2     ecut=    20.00 Ry     beta= 0.70
     Davidson diagonalization with overlap

---- Real-time Memory Report at c_bands before calling an iterative solver
           298 MiB given to the printing process from OS
             0 MiB allocation reported by mallinfo(arena+hblkhd)
           319 MiB available memory on the node where the printing process lives
------------------
     ethr =  4.18E-06,  avg # of iterations =  1.0

     negative rho (up, down):  9.133E-02 0.000E+00

     total cpu time spent up to now is        7.2 secs

     total energy              =      -2.31351539 Ry
     estimated scf accuracy    <       0.00000135 Ry

     iteration #  3     ecut=    20.00 Ry     beta= 0.70
     Davidson diagonalization with overlap

---- Real-time Memory Report at c_bands before calling an iterative solver
           298 MiB given to the printing process from OS
             0 MiB allocation reported by mallinfo(arena+hblkhd)
           309 MiB available memory on the node where the printing process lives
------------------
     ethr =  6.77E-08,  avg # of iterations =  2.0

     negative rho (up, down):  9.134E-02 0.000E+00

     total cpu time spent up to now is        7.9 secs

     total energy              =      -2.31350390 Ry
     estimated scf accuracy    <       0.00000008 Ry

     iteration #  4     ecut=    20.00 Ry     beta= 0.70
     Davidson diagonalization with overlap

---- Real-time Memory Report at c_bands before calling an iterative solver
           298 MiB given to the printing process from OS
             0 MiB allocation reported by mallinfo(arena+hblkhd)
           299 MiB available memory on the node where the printing process lives
------------------
     ethr =  4.21E-09,  avg # of iterations =  3.0

     negative rho (up, down):  9.133E-02 0.000E+00

     total cpu time spent up to now is        8.5 secs

     total energy              =      -2.31350762 Ry
     estimated scf accuracy    <       0.00000002 Ry

     iteration #  5     ecut=    20.00 Ry     beta= 0.70
     Davidson diagonalization with overlap

---- Real-time Memory Report at c_bands before calling an iterative solver
           298 MiB given to the printing process from OS
             0 MiB allocation reported by mallinfo(arena+hblkhd)
           289 MiB available memory on the node where the printing process lives
------------------
     ethr =  1.22E-09,  avg # of iterations =  3.0

     negative rho (up, down):  9.131E-02 0.000E+00

     total cpu time spent up to now is        9.1 secs

     End of self-consistent calculation

          k =-0.5000-0.5000-0.5000 ( 40800 PWs)   bands (ev):

   -10.4681  -1.3855

     occupation numbers 
     1.0000   0.0000

     highest occupied, lowest unoccupied level (ev):   -10.4681   -1.3855

!    total energy              =      -2.31353066 Ry
     estimated scf accuracy    <          3.8E-09 Ry

     The total energy is the sum of the following terms:
     one-electron contribution =      -4.18991812 Ry
     hartree contribution      =       2.24106238 Ry
     xc contribution           =      -1.38369782 Ry
     ewald contribution        =       1.01902289 Ry

     convergence has been achieved in   5 iterations

     Forces acting on atoms (cartesian axes, Ry/au):

     atom    1 type  1   force =     0.01043590    0.00000000    0.00000000
     atom    2 type  1   force =    -0.01043590    0.00000000    0.00000000
     The non-local contrib.  to forces
     atom    1 type  1   force =     0.09376116    0.00000000    0.00000000
     atom    2 type  1   force =    -0.09411811    0.00000000    0.00000000
     The ionic contribution  to forces
     atom    1 type  1   force =    -0.97537153   -0.00000000   -0.00000000
     atom    2 type  1   force =     0.97537153    0.00000000   -0.00000000
     The local contribution  to forces
     atom    1 type  1   force =     0.89193144    0.00000000    0.00000000
     atom    2 type  1   force =    -0.89187476    0.00000000    0.00000000
     The core correction contribution to forces
     atom    1 type  1   force =     0.00000000    0.00000000    0.00000000
     atom    2 type  1   force =     0.00000000    0.00000000    0.00000000
     The Hubbard contrib.    to forces
     atom    1 type  1   force =     0.00000000    0.00000000    0.00000000
     atom    2 type  1   force =     0.00000000    0.00000000    0.00000000
     The SCF correction term to forces
     atom    1 type  1   force =    -0.00004898   -0.00000000    0.00000000
     atom    2 type  1   force =     0.00002162   -0.00000000    0.00000000

     Total force =     0.014759     Total SCF correction =     0.000054
     Energy error            =      6.2E-04 Ry
     Gradient error          =      1.0E-02 Ry/Bohr

     number of scf cycles    =   2
     number of bfgs steps    =   1

     energy             old  =      -2.3129060021 Ry
     energy             new  =      -2.3135306605 Ry

     CASE: energy            _new < energy            _old

     new trust radius        =       0.0064099691 bohr
     new conv_thr            =       0.0000000006 Ry


ATOMIC_POSITIONS (angstrom)
H            -0.0054006521        0.0000000000        0.0000000000
H             0.7454006521        0.0000000000        0.0000000000



     Writing config-only to output data dir ./.save/
     NEW-OLD atomic charge density approx. for the potential

     negative rho (up, down):  9.104E-02 0.000E+00

     total cpu time spent up to now is        9.7 secs

     Self-consistent Calculation

     iteration #  1     ecut=    20.00 Ry     beta= 0.70
     Davidson diagonalization with overlap

---- Real-time Memory Report at c_bands before calling an iterative solver
           298 MiB given to the printing process from OS
             0 MiB allocation reported by mallinfo(arena+hblkhd)
           416 MiB available memory on the node where the printing process lives
------------------
     ethr =  1.00E-06,  avg # of iterations =  2.0

     negative rho (up, down):  9.152E-02 0.000E+00

     total cpu time spent up to now is       10.4 secs

     total energy              =      -2.31346554 Ry
     estimated scf accuracy    <       0.00001193 Ry

     iteration #  2     ecut=    20.00 Ry     beta= 0.70
     Davidson diagonalization with overlap

---- Real-time Memory Report at c_bands before calling an iterative solver
           298 MiB given to the printing process from OS
             0 MiB allocation reported by mallinfo(arena+hblkhd)
           319 MiB available memory on the node where the printing process lives
------------------
     ethr =  5.97E-07,  avg # of iterations =  2.0

     negative rho (up, down):  9.161E-02 0.000E+00

     total cpu time spent up to now is       11.0 secs

     total energy              =      -2.31340158 Ry
     estimated scf accuracy    <       0.00000022 Ry

     iteration #  3     ecut=    20.00 Ry     beta= 0.70
     Davidson diagonalization with overlap

---- Real-time Memory Report at c_bands before calling an iterative solver
           298 MiB given to the printing process from OS
             0 MiB allocation reported by mallinfo(arena+hblkhd)
           309 MiB available memory on the node where the printing process lives
------------------
     ethr =  1.09E-08,  avg # of iterations =  2.0

     negative rho (up, down):  9.161E-02 0.000E+00

     total cpu time spent up to now is       11.6 secs

     total energy              =      -2.31342374 Ry
     estimated scf accuracy    <       0.00000001 Ry

     iteration #  4     ecut=    20.00 Ry     beta= 0.70
     Davidson diagonalization with overlap

---- Real-time Memory Report at c_bands before calling an iterative solver
           298 MiB given to the printing process from OS
             0 MiB allocation reported by mallinfo(arena+hblkhd)
           299 MiB available memory on the node where the printing process lives
------------------
     ethr =  6.73E-10,  avg # of iterations =  4.0

     negative rho (up, down):  9.162E-02 0.000E+00

     total cpu time spent up to now is       12.2 secs

     total energy              =      -2.31341349 Ry
     estimated scf accuracy    <       0.00000005 Ry

     iteration #  5     ecut=    20.00 Ry     beta= 0.70
     Davidson diagonalization with overlap

---- Real-time Memory Report at c_bands before calling an iterative solver
           298 MiB given to the printing process from OS
             0 MiB allocation reported by mallinfo(arena+hblkhd)
           289 MiB available memory on the node where the printing process lives
------------------
     ethr =  6.73E-10,  avg # of iterations =  3.0

     negative rho (up, down):  9.162E-02 0.000E+00

     total cpu time spent up to now is       12.9 secs

     total energy              =      -2.31341970 Ry
     estimated scf accuracy    <       0.00000001 Ry

     iteration #  6     ecut=    20.00 Ry     beta= 0.70
     Davidson diagonalization with overlap

---- Real-time Memory Report at c_bands before calling an iterative solver
           298 MiB given to the printing process from OS
             0 MiB allocation reported by mallinfo(arena+hblkhd)
           279 MiB available memory on the node where the printing process lives
------------------
     ethr =  6.66E-10,  avg # of iterations =  3.0

     negative rho (up, down):  9.162E-02 0.000E+00

     total cpu time spent up to now is       13.5 secs

     total energy              =      -2.31340808 Ry
     estimated scf accuracy    <       0.00000002 Ry

     iteration #  7     ecut=    20.00 Ry     beta= 0.70
     Davidson diagonalization with overlap

---- Real-time Memory Report at c_bands before calling an iterative solver
           299 MiB given to the printing process from OS
             0 MiB allocation reported by mallinfo(arena+hblkhd)
           269 MiB available memory on the node where the printing process lives
------------------
     ethr =  6.66E-10,  avg # of iterations =  3.0

     negative rho (up, down):  9.162E-02 0.000E+00

     total cpu time spent up to now is       14.2 secs

     total energy              =      -2.31341659 Ry
     estimated scf accuracy    <       0.00000001 Ry

     iteration #  8     ecut=    20.00 Ry     beta= 0.70
     Davidson diagonalization with overlap

---- Real-time Memory Report at c_bands before calling an iterative solver
           309 MiB given to the printing process from OS
             0 MiB allocation reported by mallinfo(arena+hblkhd)
           259 MiB available memory on the node where the printing process lives
------------------
     ethr =  5.01E-10,  avg # of iterations =  3.0

     negative rho (up, down):  9.163E-02 0.000E+00

     total cpu time spent up to now is       14.8 secs

     total energy              =      -2.31339593 Ry
     estimated scf accuracy    <       0.00000002 Ry

     iteration #  9     ecut=    20.00 Ry     beta= 0.70
     Davidson diagonalization with overlap

---- Real-time Memory Report at c_bands before calling an iterative solver
           319 MiB given to the printing process from OS
             0 MiB allocation reported by mallinfo(arena+hblkhd)
           249 MiB available memory on the node where the printing process lives
------------------
     ethr =  5.01E-10,  avg # of iterations =  3.0

     negative rho (up, down):  9.163E-02 0.000E+00

     total cpu time spent up to now is       15.4 secs

     End of self-consistent calculation

          k =-0.5000-0.5000-0.5000 ( 40800 PWs)   bands (ev):

   -10.5019  -1.3851

     occupation numbers 
     1.0000   0.0000

     highest occupied, lowest unoccupied level (ev):   -10.5019   -1.3851

!    total energy              =      -2.31339671 Ry
     estimated scf accuracy    <          2.9E-10 Ry

     The total energy is the sum of the following terms:
     one-electron contribution =      -4.20724204 Ry
     hartree contribution      =       2.25014631 Ry
     xc contribution           =      -1.38794114 Ry
     ewald contribution        =       1.03164016 Ry

     convergence has been achieved in   9 iterations

     Forces acting on atoms (cartesian axes, Ry/au):

     atom    1 type  1   force =     0.00018785    0.00000000    0.00000000
     atom    2 type  1   force =    -0.00018785    0.00000000    0.00000000
     The non-local contrib.  to forces
     atom    1 type  1   force =     0.09428178    0.00000000    0.00000000
     atom    2 type  1   force =    -0.09443992    0.00000000    0.00000000
     The ionic contribution  to forces
     atom    1 type  1   force =    -0.99308968    0.00000000   -0.00000000
     atom    2 type  1   force =     0.99308968    0.00000000   -0.00000000
     The local contribution  to forces
     atom    1 type  1   force =     0.89889086    0.00000000    0.00000000
     atom    2 type  1   force =    -0.89896711    0.00000000    0.00000000
     The core correction contribution to forces
     atom    1 type  1   force =     0.00000000    0.00000000    0.00000000
     atom    2 type  1   force =     0.00000000    0.00000000    0.00000000
     The Hubbard contrib.    to forces
     atom    1 type  1   force =     0.00000000    0.00000000    0.00000000
     atom    2 type  1   force =     0.00000000    0.00000000    0.00000000
     The SCF correction term to forces
     atom    1 type  1   force =     0.00005151   -0.00000000    0.00000000
     atom    2 type  1   force =     0.00007611    0.00000000    0.00000000

     Total force =     0.000266     Total SCF correction =     0.000092
     SCF correction compared to forces is large: reduce conv_thr to get better values
     Energy error            =      1.3E-04 Ry
     Gradient error          =      1.9E-04 Ry/Bohr

     number of scf cycles    =   3
     number of bfgs steps    =   2

     energy             old  =      -2.3135306605 Ry
     energy             new  =      -2.3133967133 Ry

     CASE: energy            _new > energy            _old

     new trust radius        =       0.0016015375 bohr
     new conv_thr            =       0.0000000006 Ry


ATOMIC_POSITIONS (angstrom)
H            -0.0079451645        0.0000000000        0.0000000000
H             0.7479451645        0.0000000000        0.0000000000



     Writing config-only to output data dir ./.save/
     NEW-OLD atomic charge density approx. for the potential

     negative rho (up, down):  9.182E-02 0.000E+00

     total cpu time spent up to now is       16.2 secs

     Self-consistent Calculation

     iteration #  1     ecut=    20.00 Ry     beta= 0.70
     Davidson diagonalization with overlap

---- Real-time Memory Report at c_bands before calling an iterative solver
           319 MiB given to the printing process from OS
             0 MiB allocation reported by mallinfo(arena+hblkhd)
           416 MiB available memory on the node where the printing process lives
------------------
     ethr =  1.00E-06,  avg # of iterations =  2.0

     negative rho (up, down):  9.149E-02 0.000E+00

     total cpu time spent up to now is       16.9 secs

     total energy              =      -2.31342873 Ry
     estimated scf accuracy    <       0.00000642 Ry

     iteration #  2     ecut=    20.00 Ry     beta= 0.70
     Davidson diagonalization with overlap

---- Real-time Memory Report at c_bands before calling an iterative solver
           319 MiB given to the printing process from OS
             0 MiB allocation reported by mallinfo(arena+hblkhd)
           319 MiB available memory on the node where the printing process lives
------------------
     ethr =  3.21E-07,  avg # of iterations =  1.0

     negative rho (up, down):  9.140E-02 0.000E+00

     total cpu time spent up to now is       17.5 secs

     total energy              =      -2.31349534 Ry
     estimated scf accuracy    <       0.00000018 Ry

     iteration #  3     ecut=    20.00 Ry     beta= 0.70
     Davidson diagonalization with overlap

---- Real-time Memory Report at c_bands before calling an iterative solver
           319 MiB given to the printing process from OS
             0 MiB allocation reported by mallinfo(arena+hblkhd)
           309 MiB available memory on the node where the printing process lives
------------------
     ethr =  9.08E-09,  avg # of iterations =  2.0

     negative rho (up, down):  9.141E-02 0.000E+00

     total cpu time spent up to now is       18.1 secs

     total energy              =      -2.31349569 Ry
     estimated scf accuracy    <       0.00000001 Ry

     iteration #  4     ecut=    20.00 Ry     beta= 0.70
     Davidson diagonalization with overlap

---- Real-time Memory Report at c_bands before calling an iterative solver
           319 MiB given to the printing process from OS
             0 MiB allocation reported by mallinfo(arena+hblkhd)
           299 MiB available memory on the node where the printing process lives
------------------
     ethr =  7.21E-10,  avg # of iterations =  3.0

     negative rho (up, down):  9.142E-02 0.000E+00

     total cpu time spent up to now is       18.8 secs

     total energy              =      -2.31348669 Ry
     estimated scf accuracy    <          1.5E-09 Ry

     iteration #  5     ecut=    20.00 Ry     beta= 0.70
     Davidson diagonalization with overlap

---- Real-time Memory Report at c_bands before calling an iterative solver
           319 MiB given to the printing process from OS
             0 MiB allocation reported by mallinfo(arena+hblkhd)
           289 MiB available memory on the node where the printing process lives
------------------
     ethr =  7.60E-11,  avg # of iterations =  4.0

     negative rho (up, down):  9.141E-02 0.000E+00

     total cpu time spent up to now is       19.5 secs

     total energy              =      -2.31349222 Ry
     estimated scf accuracy    <          6.6E-09 Ry

     iteration #  6     ecut=    20.00 Ry     beta= 0.70
     Davidson diagonalization with overlap

---- Real-time Memory Report at c_bands before calling an iterative solver
           319 MiB given to the printing process from OS
             0 MiB allocation reported by mallinfo(arena+hblkhd)
           279 MiB available memory on the node where the printing process lives
------------------
     ethr =  7.60E-11,  avg # of iterations =  3.0

     negative rho (up, down):  9.141E-02 0.000E+00

     total cpu time spent up to now is       20.2 secs

     total energy              =      -2.31349941 Ry
     estimated scf accuracy    <          2.5E-09 Ry

     iteration #  7     ecut=    20.00 Ry     beta= 0.70
     Davidson diagonalization with overlap

---- Real-time Memory Report at c_bands before calling an iterative solver
           319 MiB given to the printing process from OS
             0 MiB allocation reported by mallinfo(arena+hblkhd)
           269 MiB available memory on the node where the printing process lives
------------------
     ethr =  7.60E-11,  avg # of iterations =  4.0

     negative rho (up, down):  9.141E-02 0.000E+00

     total cpu time spent up to now is       20.9 secs

     total energy              =      -2.31348927 Ry
     estimated scf accuracy    <          1.1E-09 Ry

     iteration #  8     ecut=    20.00 Ry     beta= 0.70
     Davidson diagonalization with overlap

---- Real-time Memory Report at c_bands before calling an iterative solver
           319 MiB given to the printing process from OS
             0 MiB allocation reported by mallinfo(arena+hblkhd)
           259 MiB available memory on the node where the printing process lives
------------------
     ethr =  5.45E-11,  avg # of iterations =  4.0

     negative rho (up, down):  9.141E-02 0.000E+00

     total cpu time spent up to now is       21.6 secs

     total energy              =      -2.31349527 Ry
     estimated scf accuracy    <          5.3E-09 Ry

     iteration #  9     ecut=    20.00 Ry     beta= 0.70
     Davidson diagonalization with overlap

---- Real-time Memory Report at c_bands before calling an iterative solver
           319 MiB given to the printing process from OS
             0 MiB allocation reported by mallinfo(arena+hblkhd)
           249 MiB available memory on the node where the printing process lives
------------------
     ethr =  5.45E-11,  avg # of iterations =  4.0

     negative rho (up, down):  9.141E-02 0.000E+00

     total cpu time spent up to now is       22.3 secs

     total energy              =      -2.31349331 Ry
     estimated scf accuracy    <          1.1E-09 Ry

     iteration # 10     ecut=    20.00 Ry     beta= 0.70
     Davidson diagonalization with overlap

---- Real-time Memory Report at c_bands before calling an iterative solver
           329 MiB given to the printing process from OS
             0 MiB allocation reported by mallinfo(arena+hblkhd)
           239 MiB available memory on the node where the printing process lives
------------------
     ethr =  5.45E-11,  avg # of iterations =  4.0

     negative rho (up, down):  9.141E-02 0.000E+00

     total cpu time spent up to now is       23.0 secs

     total energy              =      -2.31349193 Ry
     estimated scf accuracy    <          8.0E-10 Ry

     iteration # 11     ecut=    20.00 Ry     beta= 0.70
     Davidson diagonalization with overlap

---- Real-time Memory Report at c_bands before calling an iterative solver
           329 MiB given to the printing process from OS
             0 MiB allocation reported by mallinfo(arena+hblkhd)
           239 MiB available memory on the node where the printing process lives
------------------
     ethr =  3.99E-11,  avg # of iterations =  4.0

     negative rho (up, down):  9.141E-02 0.000E+00

     total cpu time spent up to now is       23.8 secs

     total energy              =      -2.31349019 Ry
     estimated scf accuracy    <          3.9E-09 Ry

     iteration # 12     ecut=    20.00 Ry     beta= 0.70
     Davidson diagonalization with overlap

---- Real-time Memory Report at c_bands before calling an iterative solver
           329 MiB given to the printing process from OS
             0 MiB allocation reported by mallinfo(arena+hblkhd)
           239 MiB available memory on the node where the printing process lives
------------------
     ethr =  3.99E-11,  avg # of iterations =  2.0

     negative rho (up, down):  9.141E-02 0.000E+00

     total cpu time spent up to now is       24.5 secs

     total energy              =      -2.31349021 Ry
     estimated scf accuracy    <          4.1E-09 Ry

     iteration # 13     ecut=    20.00 Ry     beta= 0.70
     Davidson diagonalization with overlap

---- Real-time Memory Report at c_bands before calling an iterative solver
           329 MiB given to the printing process from OS
             0 MiB allocation reported by mallinfo(arena+hblkhd)
           239 MiB available memory on the node where the printing process lives
------------------
     ethr =  3.99E-11,  avg # of iterations =  2.0

     negative rho (up, down):  9.141E-02 0.000E+00

     total cpu time spent up to now is       25.2 secs

     total energy              =      -2.31348708 Ry
     estimated scf accuracy    <          4.2E-09 Ry

     iteration # 14     ecut=    20.00 Ry     beta= 0.70
     Davidson diagonalization with overlap

---- Real-time Memory Report at c_bands before calling an iterative solver
           329 MiB given to the printing process from OS
             0 MiB allocation reported by mallinfo(arena+hblkhd)
           239 MiB available memory on the node where the printing process lives
------------------
     ethr =  3.99E-11,  avg # of iterations =  2.0

     negative rho (up, down):  9.141E-02 0.000E+00

     total cpu time spent up to now is       25.9 secs

     total energy              =      -2.31349024 Ry
     estimated scf accuracy    <          4.3E-09 Ry

     iteration # 15     ecut=    20.00 Ry     beta= 0.70
     Davidson diagonalization with overlap

---- Real-time Memory Report at c_bands before calling an iterative solver
           329 MiB given to the printing process from OS
             0 MiB allocation reported by mallinfo(arena+hblkhd)
           239 MiB available memory on the node where the printing process lives
------------------
     ethr =  3.99E-11,  avg # of iterations =  2.0

     negative rho (up, down):  9.141E-02 0.000E+00

     total cpu time spent up to now is       26.6 secs

     total energy              =      -2.31348702 Ry
     estimated scf accuracy    <          4.2E-09 Ry

     iteration # 16     ecut=    20.00 Ry     beta= 0.70
     Davidson diagonalization with overlap

---- Real-time Memory Report at c_bands before calling an iterative solver
           329 MiB given to the printing process from OS
             0 MiB allocation reported by mallinfo(arena+hblkhd)
           239 MiB available memory on the node where the printing process lives
------------------
     ethr =  3.99E-11,  avg # of iterations =  2.0

     negative rho (up, down):  9.140E-02 0.000E+00

     total cpu time spent up to now is       27.3 secs

     total energy              =      -2.31350212 Ry
     estimated scf accuracy    <          4.4E-09 Ry

     iteration # 17     ecut=    20.00 Ry     beta= 0.70
     Davidson diagonalization with overlap

---- Real-time Memory Report at c_bands before calling an iterative solver
           329 MiB given to the printing process from OS
             0 MiB allocation reported by mallinfo(arena+hblkhd)
           239 MiB available memory on the node where the printing process lives
------------------
     ethr =  3.99E-11,  avg # of iterations =  4.0

     negative rho (up, down):  9.142E-02 0.000E+00

     total cpu time spent up to now is       28.0 secs

     total energy              =      -2.31348660 Ry
     estimated scf accuracy    <          7.6E-09 Ry

     iteration # 18     ecut=    20.00 Ry     beta= 0.70
     Davidson diagonalization with overlap

---- Real-time Memory Report at c_bands before calling an iterative solver
           329 MiB given to the printing process from OS
             0 MiB allocation reported by mallinfo(arena+hblkhd)
           239 MiB available memory on the node where the printing process lives
------------------
     ethr =  3.99E-11,  avg # of iterations =  4.0

     negative rho (up, down):  9.137E-02 0.000E+00

     total cpu time spent up to now is       28.7 secs

     total energy              =      -2.31350738 Ry
     estimated scf accuracy    <          2.8E-09 Ry

     iteration # 19     ecut=    20.00 Ry     beta= 0.70
     Davidson diagonalization with overlap

---- Real-time Memory Report at c_bands before calling an iterative solver
           329 MiB given to the printing process from OS
             0 MiB allocation reported by mallinfo(arena+hblkhd)
           239 MiB available memory on the node where the printing process lives
------------------
     ethr =  3.99E-11,  avg # of iterations =  4.0

     negative rho (up, down):  9.142E-02 0.000E+00

     total cpu time spent up to now is       29.4 secs

     total energy              =      -2.31348955 Ry
     estimated scf accuracy    <       0.00000003 Ry

     iteration # 20     ecut=    20.00 Ry     beta= 0.70
     Davidson diagonalization with overlap

---- Real-time Memory Report at c_bands before calling an iterative solver
           329 MiB given to the printing process from OS
             0 MiB allocation reported by mallinfo(arena+hblkhd)
           239 MiB available memory on the node where the printing process lives
------------------
     ethr =  3.99E-11,  avg # of iterations =  4.0

     negative rho (up, down):  9.141E-02 0.000E+00

     total cpu time spent up to now is       30.1 secs

     total energy              =      -2.31349889 Ry
     estimated scf accuracy    <          3.6E-09 Ry

     iteration # 21     ecut=    20.00 Ry     beta= 0.70
     Davidson diagonalization with overlap

---- Real-time Memory Report at c_bands before calling an iterative solver
           329 MiB given to the printing process from OS
             0 MiB allocation reported by mallinfo(arena+hblkhd)
           239 MiB available memory on the node where the printing process lives
------------------
     ethr =  3.99E-11,  avg # of iterations =  4.0

     negative rho (up, down):  9.141E-02 0.000E+00

     total cpu time spent up to now is       30.9 secs

     total energy              =      -2.31349310 Ry
     estimated scf accuracy    <          1.1E-09 Ry

     iteration # 22     ecut=    20.00 Ry     beta= 0.70
     Davidson diagonalization with overlap

---- Real-time Memory Report at c_bands before calling an iterative solver
           329 MiB given to the printing process from OS
             0 MiB allocation reported by mallinfo(arena+hblkhd)
           239 MiB available memory on the node where the printing process lives
------------------
     ethr =  3.99E-11,  avg # of iterations =  4.0

     negative rho (up, down):  9.141E-02 0.000E+00

     total cpu time spent up to now is       31.6 secs

     total energy              =      -2.31349553 Ry
     estimated scf accuracy    <          1.0E-09 Ry

     iteration # 23     ecut=    20.00 Ry     beta= 0.70
     Davidson diagonalization with overlap

---- Real-time Memory Report at c_bands before calling an iterative solver
           329 MiB given to the printing process from OS
             0 MiB allocation reported by mallinfo(arena+hblkhd)
           239 MiB available memory on the node where the printing process lives
------------------
     ethr =  3.99E-11,  avg # of iterations =  3.0

     negative rho (up, down):  9.141E-02 0.000E+00

     total cpu time spent up to now is       32.4 secs

     total energy              =      -2.31349378 Ry
     estimated scf accuracy    <          7.8E-10 Ry

     iteration # 24     ecut=    20.00 Ry     beta= 0.70
     Davidson diagonalization with overlap

---- Real-time Memory Report at c_bands before calling an iterative solver
           329 MiB given to the printing process from OS
             0 MiB allocation reported by mallinfo(arena+hblkhd)
           239 MiB available memory on the node where the printing process lives
------------------
     ethr =  3.92E-11,  avg # of iterations =  2.0

     negative rho (up, down):  9.141E-02 0.000E+00

     total cpu time spent up to now is       33.1 secs

     total energy              =      -2.31349236 Ry
     estimated scf accuracy    <          7.8E-10 Ry

     iteration # 25     ecut=    20.00 Ry     beta= 0.70
     Davidson diagonalization with overlap

---- Real-time Memory Report at c_bands before calling an iterative solver
           329 MiB given to the printing process from OS
             0 MiB allocation reported by mallinfo(arena+hblkhd)
           239 MiB available memory on the node where the printing process lives
------------------
     ethr =  3.92E-11,  avg # of iterations =  2.0

     negative rho (up, down):  9.141E-02 0.000E+00

     total cpu time spent up to now is       33.7 secs

     total energy              =      -2.31349417 Ry
     estimated scf accuracy    <          9.7E-10 Ry

     iteration # 26     ecut=    20.00 Ry     beta= 0.70
     Davidson diagonalization with overlap

---- Real-time Memory Report at c_bands before calling an iterative solver
           329 MiB given to the printing process from OS
             0 MiB allocation reported by mallinfo(arena+hblkhd)
           239 MiB available memory on the node where the printing process lives
------------------
     ethr =  3.92E-11,  avg # of iterations =  4.0

     negative rho (up, down):  9.141E-02 0.000E+00

     total cpu time spent up to now is       34.3 secs

     End of self-consistent calculation

          k =-0.5000-0.5000-0.5000 ( 40800 PWs)   bands (ev):

   -10.4762  -1.3868

     occupation numbers 
     1.0000   0.0000

     highest occupied, lowest unoccupied level (ev):   -10.4762   -1.3868

!    total energy              =      -2.31349116 Ry
     estimated scf accuracy    <          6.0E-10 Ry

     The total energy is the sum of the following terms:
     one-electron contribution =      -4.19430288 Ry
     hartree contribution      =       2.24345676 Ry
     xc contribution           =      -1.38479913 Ry
     ewald contribution        =       1.02215409 Ry

     convergence has been achieved in  26 iterations

     Forces acting on atoms (cartesian axes, Ry/au):

     atom    1 type  1   force =     0.00806573    0.00000000    0.00000000
     atom    2 type  1   force =    -0.00806573    0.00000000    0.00000000
     The non-local contrib.  to forces
     atom    1 type  1   force =     0.09396816    0.00000000    0.00000000
     atom    2 type  1   force =    -0.09419949    0.00000000    0.00000000
     The ionic contribution  to forces
     atom    1 type  1   force =    -0.97975377    0.00000000   -0.00000000
     atom    2 type  1   force =     0.97975377    0.00000000   -0.00000000
     The local contribution  to forces
     atom    1 type  1   force =     0.89366396    0.00000000    0.00000000
     atom    2 type  1   force =    -0.89372142    0.00000000    0.00000000
     The core correction contribution to forces
     atom    1 type  1   force =     0.00000000    0.00000000    0.00000000
     atom    2 type  1   force =     0.00000000    0.00000000    0.00000000
     The Hubbard contrib.    to forces
     atom    1 type  1   force =     0.00000000    0.00000000    0.00000000
     atom    2 type  1   force =     0.00000000    0.00000000    0.00000000
     The SCF correction term to forces
     atom    1 type  1   force =     0.00014371   -0.00000000   -0.00000000
     atom    2 type  1   force =     0.00005774   -0.00000000    0.00000000

     Total force =     0.011407     Total SCF correction =     0.000155
     Energy error            =      4.0E-05 Ry
     Gradient error          =      8.1E-03 Ry/Bohr

     number of scf cycles    =   4
     number of bfgs steps    =   2

     energy             old  =      -2.3135306605 Ry
     energy             new  =      -2.3134911586 Ry

     CASE: energy            _new > energy            _old

     new trust radius        =       0.0003670329 bohr
     new conv_thr            =       0.0000000006 Ry


ATOMIC_POSITIONS (angstrom)
H            -0.0085984362        0.0000000000        0.0000000000
H             0.7485984362        0.0000000000        0.0000000000



     Writing config-only to output data dir ./.save/
     NEW-OLD atomic charge density approx. for the potential

     negative rho (up, down):  9.146E-02 0.000E+00

     total cpu time spent up to now is       35.0 secs

     Self-consistent Calculation

     iteration #  1     ecut=    20.00 Ry     beta= 0.70
     Davidson diagonalization with overlap

---- Real-time Memory Report at c_bands before calling an iterative solver
           329 MiB given to the printing process from OS
             0 MiB allocation reported by mallinfo(arena+hblkhd)
           417 MiB available memory on the node where the printing process lives
------------------
     ethr =  1.00E-06,  avg # of iterations =  2.0

     Threshold (ethr) on eigenvalues was too large:
     Diagonalizing with lowered threshold

     Davidson diagonalization with overlap

---- Real-time Memory Report at c_bands before calling an iterative solver
           329 MiB given to the printing process from OS
             0 MiB allocation reported by mallinfo(arena+hblkhd)
           400 MiB available memory on the node where the printing process lives
------------------
     ethr =  1.87E-08,  avg # of iterations =  1.0

     negative rho (up, down):  9.137E-02 0.000E+00

     total cpu time spent up to now is       35.8 secs

     total energy              =      -2.31349768 Ry
     estimated scf accuracy    <       0.00000041 Ry

     iteration #  2     ecut=    20.00 Ry     beta= 0.70
     Davidson diagonalization with overlap

---- Real-time Memory Report at c_bands before calling an iterative solver
           329 MiB given to the printing process from OS
             0 MiB allocation reported by mallinfo(arena+hblkhd)
           319 MiB available memory on the node where the printing process lives
------------------
     ethr =  2.05E-08,  avg # of iterations =  2.0

     negative rho (up, down):  9.136E-02 0.000E+00

     total cpu time spent up to now is       36.4 secs

     total energy              =      -2.31350034 Ry
     estimated scf accuracy    <          5.4E-09 Ry

     iteration #  3     ecut=    20.00 Ry     beta= 0.70
     Davidson diagonalization with overlap

---- Real-time Memory Report at c_bands before calling an iterative solver
           329 MiB given to the printing process from OS
             0 MiB allocation reported by mallinfo(arena+hblkhd)
           309 MiB available memory on the node where the printing process lives
------------------
     ethr =  2.71E-10,  avg # of iterations =  4.0

     negative rho (up, down):  9.135E-02 0.000E+00

     total cpu time spent up to now is       37.0 secs

     total energy              =      -2.31350690 Ry
     estimated scf accuracy    <          6.2E-09 Ry

     iteration #  4     ecut=    20.00 Ry     beta= 0.70
     Davidson diagonalization with overlap

---- Real-time Memory Report at c_bands before calling an iterative solver
           329 MiB given to the printing process from OS
             0 MiB allocation reported by mallinfo(arena+hblkhd)
           299 MiB available memory on the node where the printing process lives
------------------
     ethr =  2.71E-10,  avg # of iterations =  3.0

     negative rho (up, down):  9.135E-02 0.000E+00

     total cpu time spent up to now is       37.7 secs

     total energy              =      -2.31350122 Ry
     estimated scf accuracy    <          1.1E-09 Ry

     iteration #  5     ecut=    20.00 Ry     beta= 0.70
     Davidson diagonalization with overlap

---- Real-time Memory Report at c_bands before calling an iterative solver
           329 MiB given to the printing process from OS
             0 MiB allocation reported by mallinfo(arena+hblkhd)
           290 MiB available memory on the node where the printing process lives
------------------
     ethr =  5.53E-11,  avg # of iterations =  4.0

     negative rho (up, down):  9.134E-02 0.000E+00

     total cpu time spent up to now is       38.3 secs

     total energy              =      -2.31351570 Ry
     estimated scf accuracy    <          1.2E-09 Ry

     iteration #  6     ecut=    20.00 Ry     beta= 0.70
     Davidson diagonalization with overlap

---- Real-time Memory Report at c_bands before calling an iterative solver
           329 MiB given to the printing process from OS
             0 MiB allocation reported by mallinfo(arena+hblkhd)
           280 MiB available memory on the node where the printing process lives
------------------
     ethr =  5.53E-11,  avg # of iterations =  4.0

     negative rho (up, down):  9.134E-02 0.000E+00

     total cpu time spent up to now is       39.0 secs

     total energy              =      -2.31351038 Ry
     estimated scf accuracy    <          2.8E-09 Ry

     iteration #  7     ecut=    20.00 Ry     beta= 0.70
     Davidson diagonalization with overlap

---- Real-time Memory Report at c_bands before calling an iterative solver
           329 MiB given to the printing process from OS
             0 MiB allocation reported by mallinfo(arena+hblkhd)
           270 MiB available memory on the node where the printing process lives
------------------
     ethr =  5.53E-11,  avg # of iterations =  4.0

     negative rho (up, down):  9.135E-02 0.000E+00

     total cpu time spent up to now is       39.6 secs

     End of self-consistent calculation

          k =-0.5000-0.5000-0.5000 ( 40800 PWs)   bands (ev):

   -10.4700  -1.3840

     occupation numbers 
     1.0000   0.0000

     highest occupied, lowest unoccupied level (ev):   -10.4700   -1.3840

!    total energy              =      -2.31350412 Ry
     estimated scf accuracy    <          5.4E-10 Ry

     The total energy is the sum of the following terms:
     one-electron contribution =      -4.19099698 Ry
     hartree contribution      =       2.24175362 Ry
     xc contribution           =      -1.38400001 Ry
     ewald contribution        =       1.01973925 Ry

     convergence has been achieved in   7 iterations

     Forces acting on atoms (cartesian axes, Ry/au):

     atom    1 type  1   force =     0.00982963    0.00000000    0.00000000
     atom    2 type  1   force =    -0.00982963    0.00000000    0.00000000
     The non-local contrib.  to forces
     atom    1 type  1   force =     0.09354543    0.00000000    0.00000000
     atom    2 type  1   force =    -0.09428996    0.00000000    0.00000000
     The ionic contribution  to forces
     atom    1 type  1   force =    -0.97637324   -0.00000000   -0.00000000
     atom    2 type  1   force =     0.97637324    0.00000000   -0.00000000
     The local contribution  to forces
     atom    1 type  1   force =     0.89236077    0.00000000    0.00000000
     atom    2 type  1   force =    -0.89237218    0.00000000    0.00000000
     The core correction contribution to forces
     atom    1 type  1   force =     0.00000000    0.00000000    0.00000000
     atom    2 type  1   force =     0.00000000    0.00000000    0.00000000
     The Hubbard contrib.    to forces
     atom    1 type  1   force =     0.00000000    0.00000000    0.00000000
     atom    2 type  1   force =     0.00000000    0.00000000    0.00000000
     The SCF correction term to forces
     atom    1 type  1   force =    -0.00023202   -0.00000000    0.00000000
     atom    2 type  1   force =    -0.00006941   -0.00000000   -0.00000000

     Total force =     0.013901     Total SCF correction =     0.000242
     Energy error            =      2.7E-05 Ry
     Gradient error          =      9.8E-03 Ry/Bohr

     number of scf cycles    =   5
     number of bfgs steps    =   2

     energy             old  =      -2.3135306605 Ry
     energy             new  =      -2.3135041227 Ry

     CASE: energy            _new > energy            _old

     new trust radius        =       0.0000411088 bohr

     trust_radius < trust_radius_min

     resetting bfgs history

     new conv_thr            =       0.0000000006 Ry


ATOMIC_POSITIONS (angstrom)
H            -0.0032702188        0.0000000000        0.0000000000
H             0.7432702188        0.0000000000        0.0000000000



     Writing config-only to output data dir ./.save/
     NEW-OLD atomic charge density approx. for the potential

     negative rho (up, down):  9.091E-02 0.000E+00

     total cpu time spent up to now is       40.2 secs

     Self-consistent Calculation

     iteration #  1     ecut=    20.00 Ry     beta= 0.70
     Davidson diagonalization with overlap

---- Real-time Memory Report at c_bands before calling an iterative solver
           329 MiB given to the printing process from OS
             0 MiB allocation reported by mallinfo(arena+hblkhd)
           417 MiB available memory on the node where the printing process lives
------------------
     ethr =  1.00E-06,  avg # of iterations =  3.0

     negative rho (up, down):  9.166E-02 0.000E+00

     total cpu time spent up to now is       40.9 secs

     total energy              =      -2.31338203 Ry
     estimated scf accuracy    <       0.00003016 Ry

     iteration #  2     ecut=    20.00 Ry     beta= 0.70
     Davidson diagonalization with overlap

---- Real-time Memory Report at c_bands before calling an iterative solver
           329 MiB given to the printing process from OS
             0 MiB allocation reported by mallinfo(arena+hblkhd)
           319 MiB available memory on the node where the printing process lives
------------------
     ethr =  1.51E-06,  avg # of iterations =  2.0

     negative rho (up, down):  9.180E-02 0.000E+00

     total cpu time spent up to now is       41.5 secs

     total energy              =      -2.31328309 Ry
     estimated scf accuracy    <       0.00000037 Ry

     iteration #  3     ecut=    20.00 Ry     beta= 0.70
     Davidson diagonalization with overlap

---- Real-time Memory Report at c_bands before calling an iterative solver
           329 MiB given to the printing process from OS
             0 MiB allocation reported by mallinfo(arena+hblkhd)
           309 MiB available memory on the node where the printing process lives
------------------
     ethr =  1.86E-08,  avg # of iterations =  2.0

     negative rho (up, down):  9.183E-02 0.000E+00

     total cpu time spent up to now is       42.1 secs

     total energy              =      -2.31325155 Ry
     estimated scf accuracy    <       0.00000001 Ry

     iteration #  4     ecut=    20.00 Ry     beta= 0.70
     Davidson diagonalization with overlap

---- Real-time Memory Report at c_bands before calling an iterative solver
           329 MiB given to the printing process from OS
             0 MiB allocation reported by mallinfo(arena+hblkhd)
           299 MiB available memory on the node where the printing process lives
------------------
     ethr =  6.56E-10,  avg # of iterations =  3.0

     negative rho (up, down):  9.183E-02 0.000E+00

     total cpu time spent up to now is       42.7 secs

     total energy              =      -2.31326452 Ry
     estimated scf accuracy    <          7.9E-09 Ry

     iteration #  5     ecut=    20.00 Ry     beta= 0.70
     Davidson diagonalization with overlap

---- Real-time Memory Report at c_bands before calling an iterative solver
           329 MiB given to the printing process from OS
             0 MiB allocation reported by mallinfo(arena+hblkhd)
           290 MiB available memory on the node where the printing process lives
------------------
     ethr =  3.93E-10,  avg # of iterations =  4.0

     negative rho (up, down):  9.183E-02 0.000E+00

     total cpu time spent up to now is       43.4 secs

     total energy              =      -2.31325389 Ry
     estimated scf accuracy    <          4.8E-09 Ry

     iteration #  6     ecut=    20.00 Ry     beta= 0.70
     Davidson diagonalization with overlap

---- Real-time Memory Report at c_bands before calling an iterative solver
           329 MiB given to the printing process from OS
             0 MiB allocation reported by mallinfo(arena+hblkhd)
           280 MiB available memory on the node where the printing process lives
------------------
     ethr =  2.38E-10,  avg # of iterations =  3.0

     negative rho (up, down):  9.183E-02 0.000E+00

     total cpu time spent up to now is       44.1 secs

     total energy              =      -2.31325230 Ry
     estimated scf accuracy    <          1.2E-09 Ry

     iteration #  7     ecut=    20.00 Ry     beta= 0.70
     Davidson diagonalization with overlap

---- Real-time Memory Report at c_bands before calling an iterative solver
           329 MiB given to the printing process from OS
             0 MiB allocation reported by mallinfo(arena+hblkhd)
           269 MiB available memory on the node where the printing process lives
------------------
     ethr =  5.91E-11,  avg # of iterations =  4.0

     negative rho (up, down):  9.183E-02 0.000E+00

     total cpu time spent up to now is       44.7 secs

     End of self-consistent calculation

          k =-0.5000-0.5000-0.5000 ( 40800 PWs)   bands (ev):

   -10.5232  -1.3803

     occupation numbers 
     1.0000   0.0000

     highest occupied, lowest unoccupied level (ev):   -10.5232   -1.3803

!    total energy              =      -2.31325295 Ry
     estimated scf accuracy    <          5.3E-10 Ry

     The total energy is the sum of the following terms:
     one-electron contribution =      -4.21816838 Ry
     hartree contribution      =       2.25583137 Ry
     xc contribution           =      -1.39059799 Ry
     ewald contribution        =       1.03968206 Ry

     convergence has been achieved in   7 iterations

     Forces acting on atoms (cartesian axes, Ry/au):

     atom    1 type  1   force =    -0.00632889    0.00000000    0.00000000
     atom    2 type  1   force =     0.00632889    0.00000000    0.00000000
     The non-local contrib.  to forces
     atom    1 type  1   force =     0.09496094    0.00000000    0.00000000
     atom    2 type  1   force =    -0.09469641    0.00000000    0.00000000
     The ionic contribution  to forces
     atom    1 type  1   force =    -1.00446574    0.00000000   -0.00000000
     atom    2 type  1   force =     1.00446574   -0.00000000   -0.00000000
     The local contribution  to forces
     atom    1 type  1   force =     0.90331158    0.00000000    0.00000000
     atom    2 type  1   force =    -0.90337482    0.00000000    0.00000000
     The core correction contribution to forces
     atom    1 type  1   force =     0.00000000    0.00000000    0.00000000
     atom    2 type  1   force =     0.00000000    0.00000000    0.00000000
     The Hubbard contrib.    to forces
     atom    1 type  1   force =     0.00000000    0.00000000    0.00000000
     atom    2 type  1   force =     0.00000000    0.00000000    0.00000000
     The SCF correction term to forces
     atom    1 type  1   force =    -0.00001348   -0.00000000   -0.00000000
     atom    2 type  1   force =     0.00005657   -0.00000000   -0.00000000

     Total force =     0.008950     Total SCF correction =     0.000058
     Energy error            =      2.8E-04 Ry
     Gradient error          =      6.3E-03 Ry/Bohr

     number of scf cycles    =   6
     number of bfgs steps    =   2

     energy             old  =      -2.3135306605 Ry
     energy             new  =      -2.3132529463 Ry

     CASE: energy            _new > energy            _old

     new trust radius        =       0.0022936123 bohr
     new conv_thr            =       0.0000000006 Ry


ATOMIC_POSITIONS (angstrom)
H            -0.0075789343        0.0000000000        0.0000000000
H             0.7475789343        0.0000000000        0.0000000000



     Writing config-only to output data dir ./.save/
     NEW-OLD atomic charge density approx. for the potential

     negative rho (up, down):  9.214E-02 0.000E+00

     total cpu time spent up to now is       45.3 secs

     Self-consistent Calculation

     iteration #  1     ecut=    20.00 Ry     beta= 0.70
     Davidson diagonalization with overlap

---- Real-time Memory Report at c_bands before calling an iterative solver
           329 MiB given to the printing process from OS
             0 MiB allocation reported by mallinfo(arena+hblkhd)
           417 MiB available memory on the node where the printing process lives
------------------
     ethr =  1.00E-06,  avg # of iterations =  3.0

     negative rho (up, down):  9.155E-02 0.000E+00

     total cpu time spent up to now is       46.0 secs

     total energy              =      -2.31340757 Ry
     estimated scf accuracy    <       0.00002024 Ry

     iteration #  2     ecut=    20.00 Ry     beta= 0.70
     Davidson diagonalization with overlap

---- Real-time Memory Report at c_bands before calling an iterative solver
           329 MiB given to the printing process from OS
             0 MiB allocation reported by mallinfo(arena+hblkhd)
           319 MiB available memory on the node where the printing process lives
------------------
     ethr =  1.01E-06,  avg # of iterations =  2.0

     negative rho (up, down):  9.145E-02 0.000E+00

     total cpu time spent up to now is       46.6 secs

     total energy              =      -2.31345477 Ry
     estimated scf accuracy    <       0.00000025 Ry

     iteration #  3     ecut=    20.00 Ry     beta= 0.70
     Davidson diagonalization with overlap

---- Real-time Memory Report at c_bands before calling an iterative solver
           329 MiB given to the printing process from OS
             0 MiB allocation reported by mallinfo(arena+hblkhd)
           309 MiB available memory on the node where the printing process lives
------------------
     ethr =  1.27E-08,  avg # of iterations =  2.0

     negative rho (up, down):  9.143E-02 0.000E+00

     total cpu time spent up to now is       47.2 secs

     total energy              =      -2.31348939 Ry
     estimated scf accuracy    <          7.3E-09 Ry

     iteration #  4     ecut=    20.00 Ry     beta= 0.70
     Davidson diagonalization with overlap

---- Real-time Memory Report at c_bands before calling an iterative solver
           329 MiB given to the printing process from OS
             0 MiB allocation reported by mallinfo(arena+hblkhd)
           300 MiB available memory on the node where the printing process lives
------------------
     ethr =  3.66E-10,  avg # of iterations =  4.0

     negative rho (up, down):  9.144E-02 0.000E+00

     total cpu time spent up to now is       47.9 secs

     total energy              =      -2.31348019 Ry
     estimated scf accuracy    <       0.00000002 Ry

     iteration #  5     ecut=    20.00 Ry     beta= 0.70
     Davidson diagonalization with overlap

---- Real-time Memory Report at c_bands before calling an iterative solver
           329 MiB given to the printing process from OS
             0 MiB allocation reported by mallinfo(arena+hblkhd)
           290 MiB available memory on the node where the printing process lives
------------------
     ethr =  3.66E-10,  avg # of iterations =  3.0

     negative rho (up, down):  9.144E-02 0.000E+00

     total cpu time spent up to now is       48.5 secs

     total energy              =      -2.31347125 Ry
     estimated scf accuracy    <          9.9E-10 Ry

     iteration #  6     ecut=    20.00 Ry     beta= 0.70
     Davidson diagonalization with overlap

---- Real-time Memory Report at c_bands before calling an iterative solver
           329 MiB given to the printing process from OS
             0 MiB allocation reported by mallinfo(arena+hblkhd)
           280 MiB available memory on the node where the printing process lives
------------------
     ethr =  4.95E-11,  avg # of iterations =  4.0

     negative rho (up, down):  9.144E-02 0.000E+00

     total cpu time spent up to now is       49.2 secs

     total energy              =      -2.31348061 Ry
     estimated scf accuracy    <          1.4E-09 Ry

     iteration #  7     ecut=    20.00 Ry     beta= 0.70
     Davidson diagonalization with overlap

---- Real-time Memory Report at c_bands before calling an iterative solver
           329 MiB given to the printing process from OS
             0 MiB allocation reported by mallinfo(arena+hblkhd)
           269 MiB available memory on the node where the printing process lives
------------------
     ethr =  4.95E-11,  avg # of iterations =  4.0

     negative rho (up, down):  9.143E-02 0.000E+00

     total cpu time spent up to now is       49.9 secs

     total energy              =      -2.31348469 Ry
     estimated scf accuracy    <          7.0E-10 Ry

     iteration #  8     ecut=    20.00 Ry     beta= 0.70
     Davidson diagonalization with overlap

---- Real-time Memory Report at c_bands before calling an iterative solver
           329 MiB given to the printing process from OS
             0 MiB allocation reported by mallinfo(arena+hblkhd)
           259 MiB available memory on the node where the printing process lives
------------------
     ethr =  3.52E-11,  avg # of iterations =  4.0

     negative rho (up, down):  9.143E-02 0.000E+00

     total cpu time spent up to now is       50.6 secs

     total energy              =      -2.31348556 Ry
     estimated scf accuracy    <          2.6E-09 Ry

     iteration #  9     ecut=    20.00 Ry     beta= 0.70
     Davidson diagonalization with overlap

---- Real-time Memory Report at c_bands before calling an iterative solver
           329 MiB given to the printing process from OS
             0 MiB allocation reported by mallinfo(arena+hblkhd)
           249 MiB available memory on the node where the printing process lives
------------------
     ethr =  3.52E-11,  avg # of iterations =  2.0

     negative rho (up, down):  9.144E-02 0.000E+00

     total cpu time spent up to now is       51.2 secs

     total energy              =      -2.31348554 Ry
     estimated scf accuracy    <          2.4E-09 Ry

     iteration # 10     ecut=    20.00 Ry     beta= 0.70
     Davidson diagonalization with overlap

---- Real-time Memory Report at c_bands before calling an iterative solver
           329 MiB given to the printing process from OS
             0 MiB allocation reported by mallinfo(arena+hblkhd)
           239 MiB available memory on the node where the printing process lives
------------------
     ethr =  3.52E-11,  avg # of iterations =  2.0

     negative rho (up, down):  9.143E-02 0.000E+00

     total cpu time spent up to now is       51.8 secs

     total energy              =      -2.31348555 Ry
     estimated scf accuracy    <          2.7E-09 Ry

     iteration # 11     ecut=    20.00 Ry     beta= 0.70
     Davidson diagonalization with overlap

---- Real-time Memory Report at c_bands before calling an iterative solver
           329 MiB given to the printing process from OS
             0 MiB allocation reported by mallinfo(arena+hblkhd)
           239 MiB available memory on the node where the printing process lives
------------------
     ethr =  3.52E-11,  avg # of iterations =  2.0

     negative rho (up, down):  9.143E-02 0.000E+00

     total cpu time spent up to now is       52.5 secs

     total energy              =      -2.31348561 Ry
     estimated scf accuracy    <          3.0E-09 Ry

     iteration # 12     ecut=    20.00 Ry     beta= 0.70
     Davidson diagonalization with overlap

---- Real-time Memory Report at c_bands before calling an iterative solver
           329 MiB given to the printing process from OS
             0 MiB allocation reported by mallinfo(arena+hblkhd)
           239 MiB available memory on the node where the printing process lives
------------------
     ethr =  3.52E-11,  avg # of iterations =  2.0

     negative rho (up, down):  9.143E-02 0.000E+00

     total cpu time spent up to now is       53.1 secs

     total energy              =      -2.31348564 Ry
     estimated scf accuracy    <          4.1E-09 Ry

     iteration # 13     ecut=    20.00 Ry     beta= 0.70
     Davidson diagonalization with overlap

---- Real-time Memory Report at c_bands before calling an iterative solver
           329 MiB given to the printing process from OS
             0 MiB allocation reported by mallinfo(arena+hblkhd)
           239 MiB available memory on the node where the printing process lives
------------------
     ethr =  3.52E-11,  avg # of iterations =  2.0

     negative rho (up, down):  9.144E-02 0.000E+00

     total cpu time spent up to now is       53.8 secs

     total energy              =      -2.31348552 Ry
     estimated scf accuracy    <          3.3E-09 Ry

     iteration # 14     ecut=    20.00 Ry     beta= 0.70
     Davidson diagonalization with overlap

---- Real-time Memory Report at c_bands before calling an iterative solver
           329 MiB given to the printing process from OS
             0 MiB allocation reported by mallinfo(arena+hblkhd)
           239 MiB available memory on the node where the printing process lives
------------------
     ethr =  3.52E-11,  avg # of iterations =  3.0

     negative rho (up, down):  9.145E-02 0.000E+00

     total cpu time spent up to now is       54.4 secs

     total energy              =      -2.31347041 Ry
     estimated scf accuracy    <          2.8E-09 Ry

     iteration # 15     ecut=    20.00 Ry     beta= 0.70
     Davidson diagonalization with overlap

---- Real-time Memory Report at c_bands before calling an iterative solver
           329 MiB given to the printing process from OS
             0 MiB allocation reported by mallinfo(arena+hblkhd)
           239 MiB available memory on the node where the printing process lives
------------------
     ethr =  3.52E-11,  avg # of iterations =  4.0

     negative rho (up, down):  9.144E-02 0.000E+00

     total cpu time spent up to now is       55.1 secs

     total energy              =      -2.31346674 Ry
     estimated scf accuracy    <       0.00000001 Ry

     iteration # 16     ecut=    20.00 Ry     beta= 0.70
     Davidson diagonalization with overlap

---- Real-time Memory Report at c_bands before calling an iterative solver
           329 MiB given to the printing process from OS
             0 MiB allocation reported by mallinfo(arena+hblkhd)
           239 MiB available memory on the node where the printing process lives
------------------
     ethr =  3.52E-11,  avg # of iterations =  3.0

     negative rho (up, down):  9.144E-02 0.000E+00

     total cpu time spent up to now is       55.8 secs

     total energy              =      -2.31348062 Ry
     estimated scf accuracy    <          4.2E-09 Ry

     iteration # 17     ecut=    20.00 Ry     beta= 0.70
     Davidson diagonalization with overlap

[...]
             0 MiB allocation reported by mallinfo(arena+hblkhd)
           413 MiB available memory on the node where the printing process lives
------------------
     ethr =  1.00E-06,  avg # of iterations =  3.0

     negative rho (up, down):  9.167E-02 0.000E+00

     total cpu time spent up to now is      374.2 secs

     total energy              =      -2.31337734 Ry
     estimated scf accuracy    <       0.00003205 Ry

     iteration #  2     ecut=    20.00 Ry     beta= 0.70
     Davidson diagonalization with overlap

---- Real-time Memory Report at c_bands before calling an iterative solver
           329 MiB given to the printing process from OS
             0 MiB allocation reported by mallinfo(arena+hblkhd)
           316 MiB available memory on the node where the printing process lives
------------------
     ethr =  1.60E-06,  avg # of iterations =  2.0

     negative rho (up, down):  9.180E-02 0.000E+00

     total cpu time spent up to now is      374.8 secs

     total energy              =      -2.31327708 Ry
     estimated scf accuracy    <       0.00000038 Ry

     iteration #  3     ecut=    20.00 Ry     beta= 0.70
     Davidson diagonalization with overlap

---- Real-time Memory Report at c_bands before calling an iterative solver
           329 MiB given to the printing process from OS
             0 MiB allocation reported by mallinfo(arena+hblkhd)
           306 MiB available memory on the node where the printing process lives
------------------
     ethr =  1.91E-08,  avg # of iterations =  2.0

     negative rho (up, down):  9.184E-02 0.000E+00

     total cpu time spent up to now is      375.4 secs

     total energy              =      -2.31324626 Ry
     estimated scf accuracy    <       0.00000001 Ry

     iteration #  4     ecut=    20.00 Ry     beta= 0.70
     Davidson diagonalization with overlap

---- Real-time Memory Report at c_bands before calling an iterative solver
           329 MiB given to the printing process from OS
             0 MiB allocation reported by mallinfo(arena+hblkhd)
           296 MiB available memory on the node where the printing process lives
------------------
     ethr =  6.66E-10,  avg # of iterations =  3.0

     negative rho (up, down):  9.183E-02 0.000E+00

     total cpu time spent up to now is      376.1 secs

     total energy              =      -2.31325636 Ry
     estimated scf accuracy    <          6.2E-09 Ry

     iteration #  5     ecut=    20.00 Ry     beta= 0.70
     Davidson diagonalization with overlap

---- Real-time Memory Report at c_bands before calling an iterative solver
           329 MiB given to the printing process from OS
             0 MiB allocation reported by mallinfo(arena+hblkhd)
           286 MiB available memory on the node where the printing process lives
------------------
     ethr =  3.09E-10,  avg # of iterations =  4.0

     negative rho (up, down):  9.183E-02 0.000E+00

     total cpu time spent up to now is      376.7 secs

     total energy              =      -2.31325518 Ry
     estimated scf accuracy    <          9.5E-09 Ry

     iteration #  6     ecut=    20.00 Ry     beta= 0.70
     Davidson diagonalization with overlap

---- Real-time Memory Report at c_bands before calling an iterative solver
           329 MiB given to the printing process from OS
             0 MiB allocation reported by mallinfo(arena+hblkhd)
           276 MiB available memory on the node where the printing process lives
------------------
     ethr =  3.09E-10,  avg # of iterations =  3.0

     negative rho (up, down):  9.183E-02 0.000E+00

     total cpu time spent up to now is      377.4 secs

     total energy              =      -2.31325687 Ry
     estimated scf accuracy    <          7.8E-09 Ry

     iteration #  7     ecut=    20.00 Ry     beta= 0.70
     Davidson diagonalization with overlap

---- Real-time Memory Report at c_bands before calling an iterative solver
           329 MiB given to the printing process from OS
             0 MiB allocation reported by mallinfo(arena+hblkhd)
           266 MiB available memory on the node where the printing process lives
------------------
     ethr =  3.09E-10,  avg # of iterations =  3.0

     negative rho (up, down):  9.185E-02 0.000E+00

     total cpu time spent up to now is      378.1 secs

     total energy              =      -2.31323850 Ry
     estimated scf accuracy    <          7.1E-09 Ry

     iteration #  8     ecut=    20.00 Ry     beta= 0.70
     Davidson diagonalization with overlap

---- Real-time Memory Report at c_bands before calling an iterative solver
           329 MiB given to the printing process from OS
             0 MiB allocation reported by mallinfo(arena+hblkhd)
           256 MiB available memory on the node where the printing process lives
------------------
     ethr =  3.09E-10,  avg # of iterations =  4.0

     negative rho (up, down):  9.184E-02 0.000E+00

     total cpu time spent up to now is      378.8 secs

     total energy              =      -2.31324315 Ry
     estimated scf accuracy    <       0.00000001 Ry

     iteration #  9     ecut=    20.00 Ry     beta= 0.70
     Davidson diagonalization with overlap

---- Real-time Memory Report at c_bands before calling an iterative solver
           329 MiB given to the printing process from OS
             0 MiB allocation reported by mallinfo(arena+hblkhd)
           246 MiB available memory on the node where the printing process lives
------------------
     ethr =  3.09E-10,  avg # of iterations =  2.0

     negative rho (up, down):  9.184E-02 0.000E+00

     total cpu time spent up to now is      379.4 secs

     total energy              =      -2.31324291 Ry
     estimated scf accuracy    <          9.5E-09 Ry

     iteration # 10     ecut=    20.00 Ry     beta= 0.70
     Davidson diagonalization with overlap

---- Real-time Memory Report at c_bands before calling an iterative solver
           329 MiB given to the printing process from OS
             0 MiB allocation reported by mallinfo(arena+hblkhd)
           236 MiB available memory on the node where the printing process lives
------------------
     ethr =  3.09E-10,  avg # of iterations =  2.0

     negative rho (up, down):  9.185E-02 0.000E+00

     total cpu time spent up to now is      380.1 secs

     total energy              =      -2.31324100 Ry
     estimated scf accuracy    <       0.00000001 Ry

     iteration # 11     ecut=    20.00 Ry     beta= 0.70
     Davidson diagonalization with overlap

---- Real-time Memory Report at c_bands before calling an iterative solver
           329 MiB given to the printing process from OS
             0 MiB allocation reported by mallinfo(arena+hblkhd)
           236 MiB available memory on the node where the printing process lives
------------------
     ethr =  3.09E-10,  avg # of iterations =  2.0

     negative rho (up, down):  9.185E-02 0.000E+00

     total cpu time spent up to now is      380.7 secs

     total energy              =      -2.31324073 Ry
     estimated scf accuracy    <       0.00000001 Ry

     iteration # 12     ecut=    20.00 Ry     beta= 0.70
     Davidson diagonalization with overlap

---- Real-time Memory Report at c_bands before calling an iterative solver
           329 MiB given to the printing process from OS
             0 MiB allocation reported by mallinfo(arena+hblkhd)
           236 MiB available memory on the node where the printing process lives
------------------
     ethr =  3.09E-10,  avg # of iterations =  2.0

     negative rho (up, down):  9.182E-02 0.000E+00

     total cpu time spent up to now is      381.4 secs

     total energy              =      -2.31325404 Ry
     estimated scf accuracy    <       0.00000001 Ry

     iteration # 13     ecut=    20.00 Ry     beta= 0.70
     Davidson diagonalization with overlap

---- Real-time Memory Report at c_bands before calling an iterative solver
           329 MiB given to the printing process from OS
             0 MiB allocation reported by mallinfo(arena+hblkhd)
           236 MiB available memory on the node where the printing process lives
------------------
     ethr =  3.09E-10,  avg # of iterations =  4.0

     negative rho (up, down):  9.183E-02 0.000E+00

     total cpu time spent up to now is      382.1 secs

     total energy              =      -2.31325121 Ry
     estimated scf accuracy    <       0.00000001 Ry

     iteration # 14     ecut=    20.00 Ry     beta= 0.70
     Davidson diagonalization with overlap

---- Real-time Memory Report at c_bands before calling an iterative solver
           329 MiB given to the printing process from OS
             0 MiB allocation reported by mallinfo(arena+hblkhd)
           236 MiB available memory on the node where the printing process lives
------------------
     ethr =  3.09E-10,  avg # of iterations =  2.0

     negative rho (up, down):  9.184E-02 0.000E+00

     total cpu time spent up to now is      382.7 secs

     total energy              =      -2.31324321 Ry
     estimated scf accuracy    <          3.6E-09 Ry

     iteration # 15     ecut=    20.00 Ry     beta= 0.70
     Davidson diagonalization with overlap

---- Real-time Memory Report at c_bands before calling an iterative solver
           329 MiB given to the printing process from OS
             0 MiB allocation reported by mallinfo(arena+hblkhd)
           236 MiB available memory on the node where the printing process lives
------------------
     ethr =  1.78E-10,  avg # of iterations =  4.0

     negative rho (up, down):  9.182E-02 0.000E+00

     total cpu time spent up to now is      383.4 secs

     total energy              =      -2.31326263 Ry
     estimated scf accuracy    <          7.4E-09 Ry

     iteration # 16     ecut=    20.00 Ry     beta= 0.70
     Davidson diagonalization with overlap

---- Real-time Memory Report at c_bands before calling an iterative solver
           329 MiB given to the printing process from OS
             0 MiB allocation reported by mallinfo(arena+hblkhd)
           236 MiB available memory on the node where the printing process lives
------------------
     ethr =  1.78E-10,  avg # of iterations =  4.0

     negative rho (up, down):  9.183E-02 0.000E+00

     total cpu time spent up to now is      384.1 secs

     total energy              =      -2.31325445 Ry
     estimated scf accuracy    <       0.00000002 Ry

     iteration # 17     ecut=    20.00 Ry     beta= 0.70
     Davidson diagonalization with overlap

---- Real-time Memory Report at c_bands before calling an iterative solver
           329 MiB given to the printing process from OS
             0 MiB allocation reported by mallinfo(arena+hblkhd)
           236 MiB available memory on the node where the printing process lives
------------------
     ethr =  1.78E-10,  avg # of iterations =  3.0

     negative rho (up, down):  9.184E-02 0.000E+00

     total cpu time spent up to now is      384.8 secs

     total energy              =      -2.31325239 Ry
     estimated scf accuracy    <       0.00000002 Ry

     iteration # 18     ecut=    20.00 Ry     beta= 0.70
     Davidson diagonalization with overlap

---- Real-time Memory Report at c_bands before calling an iterative solver
           329 MiB given to the printing process from OS
             0 MiB allocation reported by mallinfo(arena+hblkhd)
           236 MiB available memory on the node where the printing process lives
------------------
     ethr =  1.78E-10,  avg # of iterations =  3.0

     negative rho (up, down):  9.184E-02 0.000E+00

     total cpu time spent up to now is      385.5 secs

     total energy              =      -2.31324595 Ry
     estimated scf accuracy    <          1.9E-09 Ry

     iteration # 19     ecut=    20.00 Ry     beta= 0.70
     Davidson diagonalization with overlap

---- Real-time Memory Report at c_bands before calling an iterative solver
           329 MiB given to the printing process from OS
             0 MiB allocation reported by mallinfo(arena+hblkhd)
           236 MiB available memory on the node where the printing process lives
------------------
     ethr =  9.51E-11,  avg # of iterations =  4.0

     negative rho (up, down):  9.184E-02 0.000E+00

     total cpu time spent up to now is      386.2 secs

     total energy              =      -2.31323732 Ry
     estimated scf accuracy    <          6.4E-10 Ry

     iteration # 20     ecut=    20.00 Ry     beta= 0.70
     Davidson diagonalization with overlap

---- Real-time Memory Report at c_bands before calling an iterative solver
           329 MiB given to the printing process from OS
             0 MiB allocation reported by mallinfo(arena+hblkhd)
           236 MiB available memory on the node where the printing process lives
------------------
     ethr =  3.22E-11,  avg # of iterations =  4.0

     negative rho (up, down):  9.184E-02 0.000E+00

     total cpu time spent up to now is      386.9 secs

     total energy              =      -2.31324303 Ry
     estimated scf accuracy    <       0.00000001 Ry

     iteration # 21     ecut=    20.00 Ry     beta= 0.70
     Davidson diagonalization with overlap

---- Real-time Memory Report at c_bands before calling an iterative solver
           329 MiB given to the printing process from OS
             0 MiB allocation reported by mallinfo(arena+hblkhd)
           236 MiB available memory on the node where the printing process lives
------------------
     ethr =  3.22E-11,  avg # of iterations =  4.0

     negative rho (up, down):  9.183E-02 0.000E+00

     total cpu time spent up to now is      387.5 secs

     End of self-consistent calculation

          k =-0.5000-0.5000-0.5000 ( 40800 PWs)   bands (ev):

   -10.5231  -1.3812

     occupation numbers 
     1.0000   0.0000

     highest occupied, lowest unoccupied level (ev):   -10.5231   -1.3812

!    total energy              =      -2.31326438 Ry
     estimated scf accuracy    <          5.0E-10 Ry

     The total energy is the sum of the following terms:
     one-electron contribution =      -4.21815431 Ry
     hartree contribution      =       2.25580455 Ry
     xc contribution           =      -1.39059667 Ry
     ewald contribution        =       1.03968206 Ry

     convergence has been achieved in  21 iterations

     Forces acting on atoms (cartesian axes, Ry/au):

     atom    1 type  1   force =    -0.00648207    0.00000000    0.00000000
     atom    2 type  1   force =     0.00648207    0.00000000    0.00000000
     The non-local contrib.  to forces
     atom    1 type  1   force =     0.09477548    0.00000000    0.00000000
     atom    2 type  1   force =    -0.09470938    0.00000000    0.00000000
     The ionic contribution  to forces
     atom    1 type  1   force =    -1.00446574    0.00000000   -0.00000000
     atom    2 type  1   force =     1.00446574   -0.00000000   -0.00000000
     The local contribution  to forces
     atom    1 type  1   force =     0.90330045    0.00000000    0.00000000
     atom    2 type  1   force =    -0.90335825    0.00000000    0.00000000
     The core correction contribution to forces
     atom    1 type  1   force =     0.00000000    0.00000000    0.00000000
     atom    2 type  1   force =     0.00000000    0.00000000    0.00000000
     The Hubbard contrib.    to forces
     atom    1 type  1   force =     0.00000000    0.00000000    0.00000000
     atom    2 type  1   force =     0.00000000    0.00000000    0.00000000
     The SCF correction term to forces
     atom    1 type  1   force =    -0.00016315   -0.00000000    0.00000000
     atom    2 type  1   force =     0.00001307   -0.00000000    0.00000000

     Total force =     0.009167     Total SCF correction =     0.000164
     Energy error            =      2.7E-04 Ry
     Gradient error          =      6.5E-03 Ry/Bohr

     number of scf cycles    =  50
     number of bfgs steps    =   2

     energy             old  =      -2.3135306605 Ry
     energy             new  =      -2.3132643796 Ry

     CASE: energy            _new > energy            _old

     new trust radius        =       0.0023477821 bohr

     The maximum number of steps has been reached.

     End of BFGS Geometry Optimization

ATOMIC_POSITIONS (angstrom)
H            -0.0075502688        0.0000000000        0.0000000000
H             0.7475502688        0.0000000000        0.0000000000



     Writing config-only to output data dir ./.save/
     NEW-OLD atomic charge density approx. for the potential

     negative rho (up, down):  9.214E-02 0.000E+00

     Writing all to output data dir ./.save/

     init_run     :      0.58s CPU      0.61s WALL (       1 calls)
     electrons    :    355.01s CPU    356.62s WALL (      50 calls)
     update_pot   :     20.47s CPU     20.78s WALL (      50 calls)
     forces       :      7.03s CPU      7.23s WALL (      50 calls)

     Called by init_run:
     wfcinit      :      0.05s CPU      0.05s WALL (       1 calls)
     wfcinit:atom :      0.00s CPU      0.00s WALL (       1 calls)
     wfcinit:wfcr :      0.04s CPU      0.04s WALL (       1 calls)
     potinit      :      0.36s CPU      0.37s WALL (       1 calls)
     hinit0       :      0.03s CPU      0.03s WALL (       1 calls)

     Called by electrons:
     c_bands      :     79.52s CPU     79.63s WALL (     553 calls)
     sum_band     :     43.16s CPU     43.28s WALL (     553 calls)
     v_of_rho     :    200.73s CPU    201.51s WALL (     587 calls)
     v_h          :     11.49s CPU     11.52s WALL (     587 calls)
     v_xc         :    189.23s CPU    189.99s WALL (     587 calls)
     newd         :     14.33s CPU     14.35s WALL (     587 calls)
     mix_rho      :     31.06s CPU     31.48s WALL (     553 calls)

     Called by c_bands:
     init_us_2    :      1.21s CPU      1.22s WALL (    1107 calls)
     init_us_2:cp :      1.20s CPU      1.21s WALL (    1107 calls)
     cegterg      :     78.68s CPU     78.79s WALL (     553 calls)

     Called by sum_band:
     sum_band:wei :      0.00s CPU      0.00s WALL (     553 calls)
     sum_band:loo :     13.18s CPU     13.20s WALL (     553 calls)
     sum_band:buf :      0.00s CPU      0.00s WALL (     553 calls)
     sum_band:ini :      0.62s CPU      0.62s WALL (     553 calls)
     sum_band:cal :      0.16s CPU      0.16s WALL (     553 calls)
     sum_band:bec :      0.00s CPU      0.00s WALL (     553 calls)
     addusdens    :      3.69s CPU      3.76s WALL (     553 calls)
     addusd:skk   :      1.08s CPU      1.11s WALL (     553 calls)
     addusd:dgemm :      0.76s CPU      0.78s WALL (     553 calls)
     addusd:qvan2 :      0.97s CPU      0.99s WALL (     553 calls)

     Called by *egterg:
     cdiaghg      :      0.05s CPU      0.05s WALL (    2156 calls)
     cegterg:over :      0.93s CPU      0.94s WALL (    1669 calls)
     cegterg:upda :      0.70s CPU      0.70s WALL (    1669 calls)
     cegterg:last :      1.39s CPU      1.40s WALL (    1324 calls)
     h_psi        :     74.10s CPU     74.19s WALL (    2223 calls)
     s_psi        :      0.38s CPU      0.38s WALL (    2223 calls)
     g_psi        :      0.31s CPU      0.31s WALL (    1669 calls)

     Called by h_psi:
     h_psi:calbec :      0.54s CPU      0.54s WALL (    2223 calls)
     vloc_psi     :     72.92s CPU     73.01s WALL (    2223 calls)
     add_vuspsi   :      0.41s CPU      0.41s WALL (    2223 calls)

     General routines
     calbec       :      0.73s CPU      0.74s WALL (    2976 calls)
     fft          :    101.94s CPU    102.06s WALL (    6624 calls)
     ffts         :      8.82s CPU      8.82s WALL (     553 calls)
     fftw         :     76.26s CPU     76.36s WALL (    7868 calls)


     PWSCF        :   6m26.03s CPU   6m28.22s WALL


   This run was terminated on:   3:18:36  28Feb2022            

=------------------------------------------------------------------------------=
   JOB DONE.
=------------------------------------------------------------------------------=
