
     Program PWSCF v.7.0 starts on 28Feb2022 at 22:20:20 

     This program is part of the open-source Quantum ESPRESSO suite
     for quantum simulation of materials; please cite
         "P. Giannozzi et al., J. Phys.:Condens. Matter 21 395502 (2009);
         "P. Giannozzi et al., J. Phys.:Condens. Matter 29 465901 (2017);
         "P. Giannozzi et al., J. Chem. Phys. 152 154105 (2020);
          URL http://www.quantum-espresso.org", 
     in publications or presentations arising from this work. More details at
     http://www.quantum-espresso.org/quote

     Serial version
     1283 MiB available memory on the printing compute node when the environment starts

     Waiting for input...
     Reading input from standard input

     Current dimensions of program PWSCF are:
     Max number of different atomic species (ntypx) = 10
     Max number of k-points (npk) =  40000
     Max angular momentum in pseudopotentials (lmaxx) =  4

    ============================================================
    |  pseudopotential report for atomic species:  1           |
    |        pseudo potential version   7   3   2              |
    ------------------------------------------------------------
    |  hydrogen            PBE                  exchange-corr  |
    |  z =   1.    zv( 1) =   1.    exfact =   5.00000         |
    |  ifpcor =  0           atomic energy =  -0.91772 Ry      |
    |  index    orbital      occupation    energy              |
    |    1        100           1.00       -0.48               |
    |  rinner =  0.5000                                        |
    |    new generation scheme:                                |
    |    nbeta =  1     kkbeta =  271     rcloc =    0.6000    |
    |    ibeta    l     epsilon   rcut                         |
    |      1       0      -0.48   0.80                         |
    ============================================================

     IMPORTANT: XC functional enforced from input :
     Exchange-correlation= BLYP
                           (   1   3   1   3   0   0   0)
     Any further DFT definition will be discarded
     Please, verify this is what you really want


     G-vector sticks info
     --------------------
     sticks:   dense  smooth     PW     G-vecs:    dense   smooth      PW
     Sum        4281    4281   1185               211657   211657   30551

     Using Slab Decomposition



     bravais-lattice index     =            1
     lattice parameter (alat)  =      30.0000  a.u.
     unit-cell volume          =   27000.0000 (a.u.)^3
     number of atoms/cell      =            2
     number of atomic types    =            1
     number of electrons       =         2.00
     number of Kohn-Sham states=            2
     kinetic-energy cutoff     =      15.0000  Ry
     charge density cutoff     =      60.0000  Ry
     scf convergence threshold =      1.0E-08
     mixing beta               =       0.7000
     number of iterations used =            8  plain     mixing
     Exchange-correlation= BLYP
                           (   1   3   1   3   0   0   0)

     celldm(1)=  30.000000  celldm(2)=   0.000000  celldm(3)=   0.000000
     celldm(4)=   0.000000  celldm(5)=   0.000000  celldm(6)=   0.000000

     crystal axes: (cart. coord. in units of alat)
               a(1) = (   1.000000   0.000000   0.000000 )  
               a(2) = (   0.000000   1.000000   0.000000 )  
               a(3) = (   0.000000   0.000000   1.000000 )  

     reciprocal axes: (cart. coord. in units 2 pi/alat)
               b(1) = (  1.000000  0.000000  0.000000 )  
               b(2) = (  0.000000  1.000000  0.000000 )  
               b(3) = (  0.000000  0.000000  1.000000 )  


     PseudoPot. # 1 for hy read from file:
     /root/q-e/pseudo/H_US.van
     MD5 check sum: a9a9bfe98ff56cf4de197d71fc46bb44
     Pseudo is Ultrasoft, Zval =  1.0
     Generated by Vanderbilt code, v. 7.3.2
     Using radial grid of  399 points,  1 beta functions with: 
                l(1) =   0
     Q(r) pseudized with  8 coefficients,  rinner =    0.500

     atomic species   valence    mass     pseudopotential
        H              1.00     1.00784     hy( 1.00)

      8 Sym. Ops. (no inversion) found


                                    s                        frac. trans.

      isym =  1     identity                                     

 cryst.   s( 1) = (     1          0          0      )
                  (     0          1          0      )
                  (     0          0          1      )

 cart.    s( 1) = (  1.0000000  0.0000000  0.0000000 )
                  (  0.0000000  1.0000000  0.0000000 )
                  (  0.0000000  0.0000000  1.0000000 )


      isym =  2     180 deg rotation - cart. axis [1,0,0]        

 cryst.   s( 2) = (     1          0          0      )
                  (     0         -1          0      )
                  (     0          0         -1      )

 cart.    s( 2) = (  1.0000000  0.0000000  0.0000000 )
                  (  0.0000000 -1.0000000  0.0000000 )
                  (  0.0000000  0.0000000 -1.0000000 )


      isym =  3      90 deg rotation - cart. axis [-1,0,0]       

 cryst.   s( 3) = (     1          0          0      )
                  (     0          0         -1      )
                  (     0          1          0      )

 cart.    s( 3) = (  1.0000000  0.0000000  0.0000000 )
                  (  0.0000000  0.0000000  1.0000000 )
                  (  0.0000000 -1.0000000  0.0000000 )


      isym =  4      90 deg rotation - cart. axis [1,0,0]        

 cryst.   s( 4) = (     1          0          0      )
                  (     0          0          1      )
                  (     0         -1          0      )

 cart.    s( 4) = (  1.0000000  0.0000000  0.0000000 )
                  (  0.0000000  0.0000000 -1.0000000 )
                  (  0.0000000  1.0000000  0.0000000 )


      isym =  5     inv. 180 deg rotation - cart. axis [0,0,1]   

 cryst.   s( 5) = (     1          0          0      )
                  (     0          1          0      )
                  (     0          0         -1      )

 cart.    s( 5) = (  1.0000000  0.0000000  0.0000000 )
                  (  0.0000000  1.0000000  0.0000000 )
                  (  0.0000000  0.0000000 -1.0000000 )


      isym =  6     inv. 180 deg rotation - cart. axis [0,1,0]   

 cryst.   s( 6) = (     1          0          0      )
                  (     0         -1          0      )
                  (     0          0          1      )

 cart.    s( 6) = (  1.0000000  0.0000000  0.0000000 )
                  (  0.0000000 -1.0000000  0.0000000 )
                  (  0.0000000  0.0000000  1.0000000 )


      isym =  7     inv. 180 deg rotation - cart. axis [0,1,1]   

 cryst.   s( 7) = (     1          0          0      )
                  (     0          0         -1      )
                  (     0         -1          0      )

 cart.    s( 7) = (  1.0000000  0.0000000  0.0000000 )
                  (  0.0000000  0.0000000 -1.0000000 )
                  (  0.0000000 -1.0000000  0.0000000 )


      isym =  8     inv. 180 deg rotation - cart. axis [0,1,-1]  

 cryst.   s( 8) = (     1          0          0      )
                  (     0          0          1      )
                  (     0          1          0      )

 cart.    s( 8) = (  1.0000000  0.0000000  0.0000000 )
                  (  0.0000000  0.0000000  1.0000000 )
                  (  0.0000000  1.0000000  0.0000000 )


     point group C_4v (4mm) 
     there are  5 classes
     the character table:

       E     2C4   C2    2s_v  2s_d 
A_1    1.00  1.00  1.00  1.00  1.00
A_2    1.00  1.00  1.00 -1.00 -1.00
B_1    1.00 -1.00  1.00  1.00 -1.00
B_2    1.00 -1.00  1.00 -1.00  1.00
E      2.00  0.00 -2.00  0.00  0.00

     the symmetry operations in each class and the name of the first element:

     E        1
          identity                                               
     2C4      3    4
           90 deg rotation - cart. axis [-1,0,0]                 
     C2       2
          180 deg rotation - cart. axis [1,0,0]                  
     2s_v     5    6
          inv. 180 deg rotation - cart. axis [0,0,1]             
     2s_d     7    8
          inv. 180 deg rotation - cart. axis [0,1,1]             

   Cartesian axes

     site n.     atom                  positions (alat units)
         1           H   tau(   1) = (   0.0000000   0.0000000   0.0000000  )
         2           H   tau(   2) = (   0.0062991   0.0000000   0.0000000  )

   Crystallographic axes

     site n.     atom                  positions (cryst. coord.)
         1           H   tau(   1) = (  0.0000000  0.0000000  0.0000000  )
         2           H   tau(   2) = (  0.0062991  0.0000000  0.0000000  )

     number of k points=     1
                       cart. coord. in units 2pi/alat
        k(    1) = (  -0.5000000  -0.5000000  -0.5000000), wk =   2.0000000

                       cryst. coord.
        k(    1) = (  -0.5000000  -0.5000000  -0.5000000), wk =   2.0000000

     Dense  grid:   211657 G-vectors     FFT dimensions: (  75,  75,  75)

     Dynamical RAM for                 wfc:       0.81 MB

     Dynamical RAM for     wfc (w. buffer):       0.81 MB

     Dynamical RAM for           str. fact:       3.23 MB

     Dynamical RAM for           local pot:       0.00 MB

     Dynamical RAM for          nlocal pot:       0.81 MB

     Dynamical RAM for                qrad:       0.01 MB

     Dynamical RAM for          rho,v,vnew:      19.34 MB

     Dynamical RAM for               rhoin:       6.45 MB

     Dynamical RAM for            rho*nmix:      51.67 MB

     Dynamical RAM for           G-vectors:      13.73 MB

     Dynamical RAM for          h,s,v(r/c):       0.00 MB

     Dynamical RAM for          <psi|beta>:       0.00 MB

     Dynamical RAM for                 psi:       1.62 MB

     Dynamical RAM for                hpsi:       1.62 MB

     Dynamical RAM for                spsi:       1.62 MB

     Dynamical RAM for      wfcinit/wfcrot:       1.62 MB

     Dynamical RAM for           addusdens:      19.38 MB

     Estimated static dynamical RAM per process >      66.92 MB

     Estimated max dynamical RAM per process >     137.98 MB

     Initial potential from superposition of free atoms

     starting charge       2.0000, renormalised to       2.0000

     negative rho (up, down):  1.392E-01 0.000E+00
     Starting wfcs are    2 randomized atomic wfcs

     total cpu time spent up to now is        0.4 secs

     Self-consistent Calculation

     iteration #  1     ecut=    15.00 Ry     beta= 0.70
     Davidson diagonalization with overlap

---- Real-time Memory Report at c_bands before calling an iterative solver
           123 MiB given to the printing process from OS
             0 MiB allocation reported by mallinfo(arena+hblkhd)
          1202 MiB available memory on the node where the printing process lives
------------------
     ethr =  1.00E-02,  avg # of iterations =  8.0

     negative rho (up, down):  3.874E-01 0.000E+00

     total cpu time spent up to now is        0.9 secs

     total energy              =       5.38692189 Ry
     estimated scf accuracy    <       0.43738581 Ry

     iteration #  2     ecut=    15.00 Ry     beta= 0.70
     Davidson diagonalization with overlap

---- Real-time Memory Report at c_bands before calling an iterative solver
           152 MiB given to the printing process from OS
             0 MiB allocation reported by mallinfo(arena+hblkhd)
          1144 MiB available memory on the node where the printing process lives
------------------
     ethr =  1.00E-02,  avg # of iterations =  2.0

     negative rho (up, down):  4.692E-01 0.000E+00

     total cpu time spent up to now is        1.2 secs

     total energy              =       5.41146372 Ry
     estimated scf accuracy    <       0.01192199 Ry

     iteration #  3     ecut=    15.00 Ry     beta= 0.70
     Davidson diagonalization with overlap

---- Real-time Memory Report at c_bands before calling an iterative solver
           158 MiB given to the printing process from OS
             0 MiB allocation reported by mallinfo(arena+hblkhd)
          1138 MiB available memory on the node where the printing process lives
------------------
     ethr =  5.96E-04,  avg # of iterations =  5.0

     negative rho (up, down):  4.681E-01 0.000E+00

     total cpu time spent up to now is        1.7 secs

     total energy              =       5.40750192 Ry
     estimated scf accuracy    <       0.00031798 Ry

     iteration #  4     ecut=    15.00 Ry     beta= 0.70
     Davidson diagonalization with overlap

---- Real-time Memory Report at c_bands before calling an iterative solver
           165 MiB given to the printing process from OS
             0 MiB allocation reported by mallinfo(arena+hblkhd)
          1131 MiB available memory on the node where the printing process lives
------------------
     ethr =  1.59E-05,  avg # of iterations = 10.0

     negative rho (up, down):  4.727E-01 0.000E+00

     total cpu time spent up to now is        2.2 secs

     total energy              =       5.40896548 Ry
     estimated scf accuracy    <       0.00008745 Ry

     iteration #  5     ecut=    15.00 Ry     beta= 0.70
     Davidson diagonalization with overlap

---- Real-time Memory Report at c_bands before calling an iterative solver
           171 MiB given to the printing process from OS
             0 MiB allocation reported by mallinfo(arena+hblkhd)
          1125 MiB available memory on the node where the printing process lives
------------------
     ethr =  4.37E-06,  avg # of iterations =  7.0

     negative rho (up, down):  4.725E-01 0.000E+00

     total cpu time spent up to now is        2.6 secs

     total energy              =       5.40880839 Ry
     estimated scf accuracy    <       0.00000018 Ry

     iteration #  6     ecut=    15.00 Ry     beta= 0.70
     Davidson diagonalization with overlap

---- Real-time Memory Report at c_bands before calling an iterative solver
           178 MiB given to the printing process from OS
             0 MiB allocation reported by mallinfo(arena+hblkhd)
          1118 MiB available memory on the node where the printing process lives
------------------
     ethr =  8.93E-09,  avg # of iterations =  3.0

     negative rho (up, down):  4.728E-01 0.000E+00

     total cpu time spent up to now is        3.0 secs

     total energy              =       5.40889180 Ry
     estimated scf accuracy    <       0.00000145 Ry

     iteration #  7     ecut=    15.00 Ry     beta= 0.70
     Davidson diagonalization with overlap

---- Real-time Memory Report at c_bands before calling an iterative solver
           184 MiB given to the printing process from OS
             0 MiB allocation reported by mallinfo(arena+hblkhd)
          1112 MiB available memory on the node where the printing process lives
------------------
     ethr =  8.93E-09,  avg # of iterations =  3.0

     negative rho (up, down):  4.730E-01 0.000E+00

     total cpu time spent up to now is        3.4 secs

     total energy              =       5.40890705 Ry
     estimated scf accuracy    <       0.00000056 Ry

     iteration #  8     ecut=    15.00 Ry     beta= 0.70
     Davidson diagonalization with overlap

---- Real-time Memory Report at c_bands before calling an iterative solver
           191 MiB given to the printing process from OS
             0 MiB allocation reported by mallinfo(arena+hblkhd)
          1105 MiB available memory on the node where the printing process lives
------------------
     ethr =  8.93E-09,  avg # of iterations =  3.0

     negative rho (up, down):  4.729E-01 0.000E+00

     total cpu time spent up to now is        3.8 secs

     total energy              =       5.40885649 Ry
     estimated scf accuracy    <       0.00000022 Ry

     iteration #  9     ecut=    15.00 Ry     beta= 0.70
     Davidson diagonalization with overlap

---- Real-time Memory Report at c_bands before calling an iterative solver
           197 MiB given to the printing process from OS
             0 MiB allocation reported by mallinfo(arena+hblkhd)
          1099 MiB available memory on the node where the printing process lives
------------------
     ethr =  8.93E-09,  avg # of iterations =  3.0

     negative rho (up, down):  4.729E-01 0.000E+00

     total cpu time spent up to now is        4.2 secs

     total energy              =       5.40884269 Ry
     estimated scf accuracy    <       0.00000183 Ry

     iteration # 10     ecut=    15.00 Ry     beta= 0.70
     Davidson diagonalization with overlap

---- Real-time Memory Report at c_bands before calling an iterative solver
           204 MiB given to the printing process from OS
             0 MiB allocation reported by mallinfo(arena+hblkhd)
          1093 MiB available memory on the node where the printing process lives
------------------
     ethr =  8.93E-09,  avg # of iterations =  2.0

     negative rho (up, down):  4.728E-01 0.000E+00

     total cpu time spent up to now is        4.6 secs

     total energy              =       5.40902375 Ry
     estimated scf accuracy    <       0.00000161 Ry

     iteration # 11     ecut=    15.00 Ry     beta= 0.70
     Davidson diagonalization with overlap

---- Real-time Memory Report at c_bands before calling an iterative solver
           204 MiB given to the printing process from OS
             0 MiB allocation reported by mallinfo(arena+hblkhd)
          1093 MiB available memory on the node where the printing process lives
------------------
     ethr =  8.93E-09,  avg # of iterations =  3.0

     negative rho (up, down):  4.732E-01 0.000E+00

     total cpu time spent up to now is        5.0 secs

     total energy              =       5.40889124 Ry
     estimated scf accuracy    <       0.00000309 Ry

     iteration # 12     ecut=    15.00 Ry     beta= 0.70
     Davidson diagonalization with overlap

---- Real-time Memory Report at c_bands before calling an iterative solver
           204 MiB given to the printing process from OS
             0 MiB allocation reported by mallinfo(arena+hblkhd)
          1093 MiB available memory on the node where the printing process lives
------------------
     ethr =  8.93E-09,  avg # of iterations =  4.0

     negative rho (up, down):  4.737E-01 0.000E+00

     total cpu time spent up to now is        5.4 secs

     total energy              =       5.40955076 Ry
     estimated scf accuracy    <       0.00001000 Ry

     iteration # 13     ecut=    15.00 Ry     beta= 0.70
     Davidson diagonalization with overlap

---- Real-time Memory Report at c_bands before calling an iterative solver
           204 MiB given to the printing process from OS
             0 MiB allocation reported by mallinfo(arena+hblkhd)
          1093 MiB available memory on the node where the printing process lives
------------------
     ethr =  8.93E-09,  avg # of iterations =  4.0

     negative rho (up, down):  4.733E-01 0.000E+00

     total cpu time spent up to now is        5.9 secs

     total energy              =       5.40921071 Ry
     estimated scf accuracy    <       0.00001121 Ry

     iteration # 14     ecut=    15.00 Ry     beta= 0.70
     Davidson diagonalization with overlap

---- Real-time Memory Report at c_bands before calling an iterative solver
           204 MiB given to the printing process from OS
             0 MiB allocation reported by mallinfo(arena+hblkhd)
          1093 MiB available memory on the node where the printing process lives
------------------
     ethr =  8.93E-09,  avg # of iterations =  4.0

     negative rho (up, down):  4.732E-01 0.000E+00

     total cpu time spent up to now is        6.3 secs

     total energy              =       5.40892491 Ry
     estimated scf accuracy    <       0.00000112 Ry

     iteration # 15     ecut=    15.00 Ry     beta= 0.70
     Davidson diagonalization with overlap

---- Real-time Memory Report at c_bands before calling an iterative solver
           204 MiB given to the printing process from OS
             0 MiB allocation reported by mallinfo(arena+hblkhd)
          1093 MiB available memory on the node where the printing process lives
------------------
     ethr =  8.93E-09,  avg # of iterations =  4.0

     negative rho (up, down):  4.732E-01 0.000E+00

     total cpu time spent up to now is        6.7 secs

     total energy              =       5.40879343 Ry
     estimated scf accuracy    <       0.00000590 Ry

     iteration # 16     ecut=    15.00 Ry     beta= 0.70
     Davidson diagonalization with overlap

---- Real-time Memory Report at c_bands before calling an iterative solver
           204 MiB given to the printing process from OS
             0 MiB allocation reported by mallinfo(arena+hblkhd)
          1092 MiB available memory on the node where the printing process lives
------------------
     ethr =  8.93E-09,  avg # of iterations =  3.0

     negative rho (up, down):  4.732E-01 0.000E+00

     total cpu time spent up to now is        7.1 secs

     total energy              =       5.40835940 Ry
     estimated scf accuracy    <       0.00001181 Ry

     iteration # 17     ecut=    15.00 Ry     beta= 0.70
     Davidson diagonalization with overlap

---- Real-time Memory Report at c_bands before calling an iterative solver
           204 MiB given to the printing process from OS
             0 MiB allocation reported by mallinfo(arena+hblkhd)
          1092 MiB available memory on the node where the printing process lives
------------------
     ethr =  8.93E-09,  avg # of iterations =  4.0

     negative rho (up, down):  4.732E-01 0.000E+00

     total cpu time spent up to now is        7.6 secs

     total energy              =       5.40853698 Ry
     estimated scf accuracy    <       0.00002319 Ry

     iteration # 18     ecut=    15.00 Ry     beta= 0.70
     Davidson diagonalization with overlap

---- Real-time Memory Report at c_bands before calling an iterative solver
           204 MiB given to the printing process from OS
             0 MiB allocation reported by mallinfo(arena+hblkhd)
          1092 MiB available memory on the node where the printing process lives
------------------
     ethr =  8.93E-09,  avg # of iterations =  3.0

     negative rho (up, down):  4.731E-01 0.000E+00

     total cpu time spent up to now is        8.0 secs

     total energy              =       5.40949288 Ry
     estimated scf accuracy    <       0.00001583 Ry

     iteration # 19     ecut=    15.00 Ry     beta= 0.70
     Davidson diagonalization with overlap

---- Real-time Memory Report at c_bands before calling an iterative solver
           204 MiB given to the printing process from OS
             0 MiB allocation reported by mallinfo(arena+hblkhd)
          1092 MiB available memory on the node where the printing process lives
------------------
     ethr =  8.93E-09,  avg # of iterations =  4.0

     negative rho (up, down):  4.731E-01 0.000E+00

     total cpu time spent up to now is        8.4 secs

     total energy              =       5.40893887 Ry
     estimated scf accuracy    <       0.00000004 Ry

     iteration # 20     ecut=    15.00 Ry     beta= 0.70
     Davidson diagonalization with overlap

---- Real-time Memory Report at c_bands before calling an iterative solver
           204 MiB given to the printing process from OS
             0 MiB allocation reported by mallinfo(arena+hblkhd)
          1092 MiB available memory on the node where the printing process lives
------------------
     ethr =  1.77E-09,  avg # of iterations =  3.0

     negative rho (up, down):  4.732E-01 0.000E+00

     total cpu time spent up to now is        8.8 secs

     End of self-consistent calculation

          k =-0.5000-0.5000-0.5000 ( 26344 PWs)   bands (ev):

   -15.8447  -1.7599

     occupation numbers 
     1.0000   0.0000

     highest occupied, lowest unoccupied level (ev):   -15.8447   -1.7599

!    total energy              =       5.40895751 Ry
     estimated scf accuracy    <          4.9E-09 Ry

     The total energy is the sum of the following terms:
     one-electron contribution =      -6.15219593 Ry
     hartree contribution      =       3.18466522 Ry
     xc contribution           =      -1.82875518 Ry
     ewald contribution        =      10.20524340 Ry

     convergence has been achieved in  20 iterations

     Writing all to output data dir ./.save/

     init_run     :      0.36s CPU      0.39s WALL (       1 calls)
     electrons    :      8.35s CPU      8.38s WALL (       1 calls)

     Called by init_run:
     wfcinit      :      0.03s CPU      0.03s WALL (       1 calls)
     wfcinit:atom :      0.00s CPU      0.00s WALL (       1 calls)
     wfcinit:wfcr :      0.03s CPU      0.03s WALL (       1 calls)
     potinit      :      0.22s CPU      0.23s WALL (       1 calls)
     hinit0       :      0.02s CPU      0.02s WALL (       1 calls)

     Called by electrons:
     c_bands      :      2.07s CPU      2.07s WALL (      20 calls)
     sum_band     :      0.93s CPU      0.94s WALL (      20 calls)
     v_of_rho     :      4.30s CPU      4.31s WALL (      21 calls)
     v_h          :      0.24s CPU      0.24s WALL (      21 calls)
     v_xc         :      4.06s CPU      4.07s WALL (      21 calls)
     newd         :      0.31s CPU      0.31s WALL (      21 calls)
     mix_rho      :      0.85s CPU      0.87s WALL (      20 calls)

     Called by c_bands:
     init_us_2    :      0.03s CPU      0.03s WALL (      41 calls)
     init_us_2:cp :      0.03s CPU      0.03s WALL (      41 calls)
     cegterg      :      2.05s CPU      2.05s WALL (      20 calls)

     Called by sum_band:
     sum_band:wei :      0.00s CPU      0.00s WALL (      20 calls)
     sum_band:loo :      0.27s CPU      0.28s WALL (      20 calls)
     sum_band:buf :      0.00s CPU      0.00s WALL (      20 calls)
     sum_band:ini :      0.01s CPU      0.01s WALL (      20 calls)
     sum_band:cal :      0.00s CPU      0.00s WALL (      20 calls)
     sum_band:bec :      0.00s CPU      0.00s WALL (      20 calls)
     addusdens    :      0.08s CPU      0.09s WALL (      20 calls)
     addusd:skk   :      0.03s CPU      0.03s WALL (      20 calls)
     addusd:dgemm :      0.02s CPU      0.02s WALL (      20 calls)
     addusd:qvan2 :      0.02s CPU      0.02s WALL (      20 calls)

     Called by *egterg:
     cdiaghg      :      0.00s CPU      0.00s WALL (     102 calls)
     cegterg:over :      0.03s CPU      0.03s WALL (      82 calls)
     cegterg:upda :      0.02s CPU      0.02s WALL (      82 calls)
     cegterg:last :      0.04s CPU      0.04s WALL (      59 calls)
     h_psi        :      1.94s CPU      1.94s WALL (     103 calls)
     s_psi        :      0.01s CPU      0.01s WALL (     103 calls)
     g_psi        :      0.01s CPU      0.01s WALL (      82 calls)

     Called by h_psi:
     h_psi:calbec :      0.02s CPU      0.02s WALL (     103 calls)
     vloc_psi     :      1.90s CPU      1.90s WALL (     103 calls)
     add_vuspsi   :      0.01s CPU      0.01s WALL (     103 calls)

     General routines
     calbec       :      0.02s CPU      0.02s WALL (     123 calls)
     fft          :      2.09s CPU      2.10s WALL (     230 calls)
     ffts         :      0.19s CPU      0.19s WALL (      20 calls)
     fftw         :      1.95s CPU      1.96s WALL (     342 calls)


     PWSCF        :      8.75s CPU      8.81s WALL


   This run was terminated on:  22:20:28  28Feb2022            

=------------------------------------------------------------------------------=
   JOB DONE.
=------------------------------------------------------------------------------=
