
     Program PWSCF v.7.0 starts on 28Feb2022 at 22:18:45 

     This program is part of the open-source Quantum ESPRESSO suite
     for quantum simulation of materials; please cite
         "P. Giannozzi et al., J. Phys.:Condens. Matter 21 395502 (2009);
         "P. Giannozzi et al., J. Phys.:Condens. Matter 29 465901 (2017);
         "P. Giannozzi et al., J. Chem. Phys. 152 154105 (2020);
          URL http://www.quantum-espresso.org", 
     in publications or presentations arising from this work. More details at
     http://www.quantum-espresso.org/quote

     Serial version
     1285 MiB available memory on the printing compute node when the environment starts

     Waiting for input...
     Reading input from standard input

     Current dimensions of program PWSCF are:
     Max number of different atomic species (ntypx) = 10
     Max number of k-points (npk) =  40000
     Max angular momentum in pseudopotentials (lmaxx) =  4

    ============================================================
    |  pseudopotential report for atomic species:  1           |
    |        pseudo potential version   7   3   2              |
    ------------------------------------------------------------
    |  hydrogen            PBE                  exchange-corr  |
    |  z =   1.    zv( 1) =   1.    exfact =   5.00000         |
    |  ifpcor =  0           atomic energy =  -0.91772 Ry      |
    |  index    orbital      occupation    energy              |
    |    1        100           1.00       -0.48               |
    |  rinner =  0.5000                                        |
    |    new generation scheme:                                |
    |    nbeta =  1     kkbeta =  271     rcloc =    0.6000    |
    |    ibeta    l     epsilon   rcut                         |
    |      1       0      -0.48   0.80                         |
    ============================================================

     IMPORTANT: XC functional enforced from input :
     Exchange-correlation= BLYP
                           (   1   3   1   3   0   0   0)
     Any further DFT definition will be discarded
     Please, verify this is what you really want


     G-vector sticks info
     --------------------
     sticks:   dense  smooth     PW     G-vecs:    dense   smooth      PW
     Sum        2869    2869    793               115313   115313   17071

     Using Slab Decomposition



     bravais-lattice index     =            1
     lattice parameter (alat)  =      30.0000  a.u.
     unit-cell volume          =   27000.0000 (a.u.)^3
     number of atoms/cell      =            2
     number of atomic types    =            1
     number of electrons       =         2.00
     number of Kohn-Sham states=            2
     kinetic-energy cutoff     =      10.0000  Ry
     charge density cutoff     =      40.0000  Ry
     scf convergence threshold =      1.0E-08
     mixing beta               =       0.7000
     number of iterations used =            8  plain     mixing
     Exchange-correlation= BLYP
                           (   1   3   1   3   0   0   0)

     celldm(1)=  30.000000  celldm(2)=   0.000000  celldm(3)=   0.000000
     celldm(4)=   0.000000  celldm(5)=   0.000000  celldm(6)=   0.000000

     crystal axes: (cart. coord. in units of alat)
               a(1) = (   1.000000   0.000000   0.000000 )  
               a(2) = (   0.000000   1.000000   0.000000 )  
               a(3) = (   0.000000   0.000000   1.000000 )  

     reciprocal axes: (cart. coord. in units 2 pi/alat)
               b(1) = (  1.000000  0.000000  0.000000 )  
               b(2) = (  0.000000  1.000000  0.000000 )  
               b(3) = (  0.000000  0.000000  1.000000 )  


     PseudoPot. # 1 for hy read from file:
     /root/q-e/pseudo/H_US.van
     MD5 check sum: a9a9bfe98ff56cf4de197d71fc46bb44
     Pseudo is Ultrasoft, Zval =  1.0
     Generated by Vanderbilt code, v. 7.3.2
     Using radial grid of  399 points,  1 beta functions with: 
                l(1) =   0
     Q(r) pseudized with  8 coefficients,  rinner =    0.500

     atomic species   valence    mass     pseudopotential
        H              1.00     1.00784     hy( 1.00)

      8 Sym. Ops. (no inversion) found


                                    s                        frac. trans.

      isym =  1     identity                                     

 cryst.   s( 1) = (     1          0          0      )
                  (     0          1          0      )
                  (     0          0          1      )

 cart.    s( 1) = (  1.0000000  0.0000000  0.0000000 )
                  (  0.0000000  1.0000000  0.0000000 )
                  (  0.0000000  0.0000000  1.0000000 )


      isym =  2     180 deg rotation - cart. axis [1,0,0]        

 cryst.   s( 2) = (     1          0          0      )
                  (     0         -1          0      )
                  (     0          0         -1      )

 cart.    s( 2) = (  1.0000000  0.0000000  0.0000000 )
                  (  0.0000000 -1.0000000  0.0000000 )
                  (  0.0000000  0.0000000 -1.0000000 )


      isym =  3      90 deg rotation - cart. axis [-1,0,0]       

 cryst.   s( 3) = (     1          0          0      )
                  (     0          0         -1      )
                  (     0          1          0      )

 cart.    s( 3) = (  1.0000000  0.0000000  0.0000000 )
                  (  0.0000000  0.0000000  1.0000000 )
                  (  0.0000000 -1.0000000  0.0000000 )


      isym =  4      90 deg rotation - cart. axis [1,0,0]        

 cryst.   s( 4) = (     1          0          0      )
                  (     0          0          1      )
                  (     0         -1          0      )

 cart.    s( 4) = (  1.0000000  0.0000000  0.0000000 )
                  (  0.0000000  0.0000000 -1.0000000 )
                  (  0.0000000  1.0000000  0.0000000 )


      isym =  5     inv. 180 deg rotation - cart. axis [0,0,1]   

 cryst.   s( 5) = (     1          0          0      )
                  (     0          1          0      )
                  (     0          0         -1      )

 cart.    s( 5) = (  1.0000000  0.0000000  0.0000000 )
                  (  0.0000000  1.0000000  0.0000000 )
                  (  0.0000000  0.0000000 -1.0000000 )


      isym =  6     inv. 180 deg rotation - cart. axis [0,1,0]   

 cryst.   s( 6) = (     1          0          0      )
                  (     0         -1          0      )
                  (     0          0          1      )

 cart.    s( 6) = (  1.0000000  0.0000000  0.0000000 )
                  (  0.0000000 -1.0000000  0.0000000 )
                  (  0.0000000  0.0000000  1.0000000 )


      isym =  7     inv. 180 deg rotation - cart. axis [0,1,1]   

 cryst.   s( 7) = (     1          0          0      )
                  (     0          0         -1      )
                  (     0         -1          0      )

 cart.    s( 7) = (  1.0000000  0.0000000  0.0000000 )
                  (  0.0000000  0.0000000 -1.0000000 )
                  (  0.0000000 -1.0000000  0.0000000 )


      isym =  8     inv. 180 deg rotation - cart. axis [0,1,-1]  

 cryst.   s( 8) = (     1          0          0      )
                  (     0          0          1      )
                  (     0          1          0      )

 cart.    s( 8) = (  1.0000000  0.0000000  0.0000000 )
                  (  0.0000000  0.0000000  1.0000000 )
                  (  0.0000000  1.0000000  0.0000000 )


     point group C_4v (4mm) 
     there are  5 classes
     the character table:

       E     2C4   C2    2s_v  2s_d 
A_1    1.00  1.00  1.00  1.00  1.00
A_2    1.00  1.00  1.00 -1.00 -1.00
B_1    1.00 -1.00  1.00  1.00 -1.00
B_2    1.00 -1.00  1.00 -1.00  1.00
E      2.00  0.00 -2.00  0.00  0.00

     the symmetry operations in each class and the name of the first element:

     E        1
          identity                                               
     2C4      3    4
           90 deg rotation - cart. axis [-1,0,0]                 
     C2       2
          180 deg rotation - cart. axis [1,0,0]                  
     2s_v     5    6
          inv. 180 deg rotation - cart. axis [0,0,1]             
     2s_d     7    8
          inv. 180 deg rotation - cart. axis [0,1,1]             

   Cartesian axes

     site n.     atom                  positions (alat units)
         1           H   tau(   1) = (   0.0000000   0.0000000   0.0000000  )
         2           H   tau(   2) = (   0.1889726   0.0000000   0.0000000  )

   Crystallographic axes

     site n.     atom                  positions (cryst. coord.)
         1           H   tau(   1) = (  0.0000000  0.0000000  0.0000000  )
         2           H   tau(   2) = (  0.1889726  0.0000000  0.0000000  )

     number of k points=     1
                       cart. coord. in units 2pi/alat
        k(    1) = (  -0.5000000  -0.5000000  -0.5000000), wk =   2.0000000

                       cryst. coord.
        k(    1) = (  -0.5000000  -0.5000000  -0.5000000), wk =   2.0000000

     Dense  grid:   115313 G-vectors     FFT dimensions: (  64,  64,  64)

     Dynamical RAM for                 wfc:       0.44 MB

     Dynamical RAM for     wfc (w. buffer):       0.44 MB

     Dynamical RAM for           str. fact:       1.76 MB

     Dynamical RAM for           local pot:       0.00 MB

     Dynamical RAM for          nlocal pot:       0.44 MB

     Dynamical RAM for                qrad:       0.00 MB

     Dynamical RAM for          rho,v,vnew:      11.28 MB

     Dynamical RAM for               rhoin:       3.76 MB

     Dynamical RAM for            rho*nmix:      28.15 MB

     Dynamical RAM for           G-vectors:       7.48 MB

     Dynamical RAM for          h,s,v(r/c):       0.00 MB

     Dynamical RAM for          <psi|beta>:       0.00 MB

     Dynamical RAM for                 psi:       0.88 MB

     Dynamical RAM for                hpsi:       0.88 MB

     Dynamical RAM for                spsi:       0.88 MB

     Dynamical RAM for      wfcinit/wfcrot:       0.88 MB

     Dynamical RAM for           addusdens:      10.56 MB

     Estimated static dynamical RAM per process >      38.68 MB

     Estimated max dynamical RAM per process >      77.39 MB

     Initial potential from superposition of free atoms

     starting charge       2.0000, renormalised to       2.0000

     negative rho (up, down):  2.025E-01 0.000E+00
     Starting wfcs are    2 randomized atomic wfcs

     total cpu time spent up to now is        0.2 secs

     Self-consistent Calculation

     iteration #  1     ecut=    10.00 Ry     beta= 0.70
     Davidson diagonalization with overlap

---- Real-time Memory Report at c_bands before calling an iterative solver
            79 MiB given to the printing process from OS
             0 MiB allocation reported by mallinfo(arena+hblkhd)
          1234 MiB available memory on the node where the printing process lives
------------------
     ethr =  1.00E-02,  avg # of iterations =  1.0

     Threshold (ethr) on eigenvalues was too large:
     Diagonalizing with lowered threshold

     Davidson diagonalization with overlap

---- Real-time Memory Report at c_bands before calling an iterative solver
            79 MiB given to the printing process from OS
             0 MiB allocation reported by mallinfo(arena+hblkhd)
          1226 MiB available memory on the node where the printing process lives
------------------
     ethr =  1.66E-04,  avg # of iterations =  1.0

     negative rho (up, down):  1.705E-01 0.000E+00

     total cpu time spent up to now is        0.5 secs

     total energy              =      -1.83158672 Ry
     estimated scf accuracy    <       0.00314332 Ry

     iteration #  2     ecut=    10.00 Ry     beta= 0.70
     Davidson diagonalization with overlap

---- Real-time Memory Report at c_bands before calling an iterative solver
           100 MiB given to the printing process from OS
             0 MiB allocation reported by mallinfo(arena+hblkhd)
          1194 MiB available memory on the node where the printing process lives
------------------
     ethr =  1.57E-04,  avg # of iterations =  1.0

     negative rho (up, down):  1.693E-01 0.000E+00

     total cpu time spent up to now is        0.7 secs

     total energy              =      -1.83014136 Ry
     estimated scf accuracy    <       0.02252916 Ry

     iteration #  3     ecut=    10.00 Ry     beta= 0.70
     Davidson diagonalization with overlap

---- Real-time Memory Report at c_bands before calling an iterative solver
           104 MiB given to the printing process from OS
             0 MiB allocation reported by mallinfo(arena+hblkhd)
          1190 MiB available memory on the node where the printing process lives
------------------
     ethr =  1.57E-04,  avg # of iterations =  1.0

     negative rho (up, down):  1.600E-01 0.000E+00

     total cpu time spent up to now is        0.9 secs

     total energy              =      -1.83648895 Ry
     estimated scf accuracy    <       0.05153900 Ry

     iteration #  4     ecut=    10.00 Ry     beta= 0.70
     Davidson diagonalization with overlap

---- Real-time Memory Report at c_bands before calling an iterative solver
           107 MiB given to the printing process from OS
             0 MiB allocation reported by mallinfo(arena+hblkhd)
          1187 MiB available memory on the node where the printing process lives
------------------
     ethr =  1.57E-04,  avg # of iterations =  1.0

     negative rho (up, down):  1.591E-01 0.000E+00

     total cpu time spent up to now is        1.1 secs

     total energy              =      -1.83825346 Ry
     estimated scf accuracy    <       0.00003966 Ry

     iteration #  5     ecut=    10.00 Ry     beta= 0.70
     Davidson diagonalization with overlap

---- Real-time Memory Report at c_bands before calling an iterative solver
           111 MiB given to the printing process from OS
             0 MiB allocation reported by mallinfo(arena+hblkhd)
          1183 MiB available memory on the node where the printing process lives
------------------
     ethr =  1.98E-06,  avg # of iterations =  2.0

     negative rho (up, down):  1.593E-01 0.000E+00

     total cpu time spent up to now is        1.3 secs

     total energy              =      -1.83817336 Ry
     estimated scf accuracy    <       0.00000103 Ry

     iteration #  6     ecut=    10.00 Ry     beta= 0.70
     Davidson diagonalization with overlap

---- Real-time Memory Report at c_bands before calling an iterative solver
           114 MiB given to the printing process from OS
             0 MiB allocation reported by mallinfo(arena+hblkhd)
          1180 MiB available memory on the node where the printing process lives
------------------
     ethr =  5.15E-08,  avg # of iterations =  2.0

     negative rho (up, down):  1.594E-01 0.000E+00

     total cpu time spent up to now is        1.5 secs

     total energy              =      -1.83813126 Ry
     estimated scf accuracy    <       0.00000134 Ry

     iteration #  7     ecut=    10.00 Ry     beta= 0.70
     Davidson diagonalization with overlap

---- Real-time Memory Report at c_bands before calling an iterative solver
           118 MiB given to the printing process from OS
             0 MiB allocation reported by mallinfo(arena+hblkhd)
          1176 MiB available memory on the node where the printing process lives
------------------
     ethr =  5.15E-08,  avg # of iterations =  3.0

     negative rho (up, down):  1.593E-01 0.000E+00

     total cpu time spent up to now is        1.7 secs

     total energy              =      -1.83818148 Ry
     estimated scf accuracy    <       0.00000297 Ry

     iteration #  8     ecut=    10.00 Ry     beta= 0.70
     Davidson diagonalization with overlap

---- Real-time Memory Report at c_bands before calling an iterative solver
           121 MiB given to the printing process from OS
             0 MiB allocation reported by mallinfo(arena+hblkhd)
          1173 MiB available memory on the node where the printing process lives
------------------
     ethr =  5.15E-08,  avg # of iterations =  3.0

     negative rho (up, down):  1.594E-01 0.000E+00

     total cpu time spent up to now is        2.0 secs

     total energy              =      -1.83813083 Ry
     estimated scf accuracy    <       0.00000056 Ry

     iteration #  9     ecut=    10.00 Ry     beta= 0.70
     Davidson diagonalization with overlap

---- Real-time Memory Report at c_bands before calling an iterative solver
           125 MiB given to the printing process from OS
             0 MiB allocation reported by mallinfo(arena+hblkhd)
          1169 MiB available memory on the node where the printing process lives
------------------
     ethr =  2.80E-08,  avg # of iterations =  3.0

     negative rho (up, down):  1.594E-01 0.000E+00

     total cpu time spent up to now is        2.2 secs

     total energy              =      -1.83816407 Ry
     estimated scf accuracy    <       0.00000064 Ry

     iteration # 10     ecut=    10.00 Ry     beta= 0.70
     Davidson diagonalization with overlap

---- Real-time Memory Report at c_bands before calling an iterative solver
           128 MiB given to the printing process from OS
             0 MiB allocation reported by mallinfo(arena+hblkhd)
          1166 MiB available memory on the node where the printing process lives
------------------
     ethr =  2.80E-08,  avg # of iterations =  3.0

     negative rho (up, down):  1.594E-01 0.000E+00

     total cpu time spent up to now is        2.4 secs

     total energy              =      -1.83814868 Ry
     estimated scf accuracy    <       0.00000102 Ry

     iteration # 11     ecut=    10.00 Ry     beta= 0.70
     Davidson diagonalization with overlap

---- Real-time Memory Report at c_bands before calling an iterative solver
           128 MiB given to the printing process from OS
             0 MiB allocation reported by mallinfo(arena+hblkhd)
          1166 MiB available memory on the node where the printing process lives
------------------
     ethr =  2.80E-08,  avg # of iterations =  3.0

     negative rho (up, down):  1.593E-01 0.000E+00

     total cpu time spent up to now is        2.6 secs

     total energy              =      -1.83815934 Ry
     estimated scf accuracy    <       0.00000015 Ry

     iteration # 12     ecut=    10.00 Ry     beta= 0.70
     Davidson diagonalization with overlap

---- Real-time Memory Report at c_bands before calling an iterative solver
           128 MiB given to the printing process from OS
             0 MiB allocation reported by mallinfo(arena+hblkhd)
          1166 MiB available memory on the node where the printing process lives
------------------
     ethr =  7.65E-09,  avg # of iterations =  2.0

     negative rho (up, down):  1.593E-01 0.000E+00

     total cpu time spent up to now is        2.9 secs

     total energy              =      -1.83813008 Ry
     estimated scf accuracy    <       0.00000006 Ry

     iteration # 13     ecut=    10.00 Ry     beta= 0.70
     Davidson diagonalization with overlap

---- Real-time Memory Report at c_bands before calling an iterative solver
           128 MiB given to the printing process from OS
             0 MiB allocation reported by mallinfo(arena+hblkhd)
          1166 MiB available memory on the node where the printing process lives
------------------
     ethr =  2.84E-09,  avg # of iterations =  4.0

     negative rho (up, down):  1.593E-01 0.000E+00

     total cpu time spent up to now is        3.1 secs

     total energy              =      -1.83814167 Ry
     estimated scf accuracy    <       0.00000097 Ry

     iteration # 14     ecut=    10.00 Ry     beta= 0.70
     Davidson diagonalization with overlap

---- Real-time Memory Report at c_bands before calling an iterative solver
           128 MiB given to the printing process from OS
             0 MiB allocation reported by mallinfo(arena+hblkhd)
          1166 MiB available memory on the node where the printing process lives
------------------
     ethr =  2.84E-09,  avg # of iterations =  2.0

     negative rho (up, down):  1.593E-01 0.000E+00

     total cpu time spent up to now is        3.3 secs

     total energy              =      -1.83819090 Ry
     estimated scf accuracy    <       0.00000055 Ry

     iteration # 15     ecut=    10.00 Ry     beta= 0.70
     Davidson diagonalization with overlap

---- Real-time Memory Report at c_bands before calling an iterative solver
           128 MiB given to the printing process from OS
             0 MiB allocation reported by mallinfo(arena+hblkhd)
          1166 MiB available memory on the node where the printing process lives
------------------
     ethr =  2.84E-09,  avg # of iterations =  5.0

     negative rho (up, down):  1.593E-01 0.000E+00

     total cpu time spent up to now is        3.6 secs

     total energy              =      -1.83816436 Ry
     estimated scf accuracy    <       0.00000050 Ry

     iteration # 16     ecut=    10.00 Ry     beta= 0.70
     Davidson diagonalization with overlap

---- Real-time Memory Report at c_bands before calling an iterative solver
           128 MiB given to the printing process from OS
             0 MiB allocation reported by mallinfo(arena+hblkhd)
          1166 MiB available memory on the node where the printing process lives
------------------
     ethr =  2.84E-09,  avg # of iterations =  4.0

     negative rho (up, down):  1.593E-01 0.000E+00

     total cpu time spent up to now is        3.8 secs

     total energy              =      -1.83816115 Ry
     estimated scf accuracy    <       0.00000165 Ry

     iteration # 17     ecut=    10.00 Ry     beta= 0.70
     Davidson diagonalization with overlap

---- Real-time Memory Report at c_bands before calling an iterative solver
           128 MiB given to the printing process from OS
             0 MiB allocation reported by mallinfo(arena+hblkhd)
          1166 MiB available memory on the node where the printing process lives
------------------
     ethr =  2.84E-09,  avg # of iterations =  4.0

     negative rho (up, down):  1.593E-01 0.000E+00

     total cpu time spent up to now is        4.1 secs

     total energy              =      -1.83816606 Ry
     estimated scf accuracy    <       0.00000130 Ry

     iteration # 18     ecut=    10.00 Ry     beta= 0.70
     Davidson diagonalization with overlap

---- Real-time Memory Report at c_bands before calling an iterative solver
           128 MiB given to the printing process from OS
             0 MiB allocation reported by mallinfo(arena+hblkhd)
          1166 MiB available memory on the node where the printing process lives
------------------
     ethr =  2.84E-09,  avg # of iterations =  1.0

     negative rho (up, down):  1.593E-01 0.000E+00

     total cpu time spent up to now is        4.3 secs

     total energy              =      -1.83816116 Ry
     estimated scf accuracy    <       0.00000128 Ry

     iteration # 19     ecut=    10.00 Ry     beta= 0.70
     Davidson diagonalization with overlap

---- Real-time Memory Report at c_bands before calling an iterative solver
           128 MiB given to the printing process from OS
             0 MiB allocation reported by mallinfo(arena+hblkhd)
          1166 MiB available memory on the node where the printing process lives
------------------
     ethr =  2.84E-09,  avg # of iterations =  4.0

     negative rho (up, down):  1.593E-01 0.000E+00

     total cpu time spent up to now is        4.5 secs

     total energy              =      -1.83816690 Ry
     estimated scf accuracy    <       0.00000161 Ry

     iteration # 20     ecut=    10.00 Ry     beta= 0.70
     Davidson diagonalization with overlap

---- Real-time Memory Report at c_bands before calling an iterative solver
           128 MiB given to the printing process from OS
             0 MiB allocation reported by mallinfo(arena+hblkhd)
          1166 MiB available memory on the node where the printing process lives
------------------
     ethr =  2.84E-09,  avg # of iterations =  3.0

     negative rho (up, down):  1.593E-01 0.000E+00

     total cpu time spent up to now is        4.7 secs

     total energy              =      -1.83815400 Ry
     estimated scf accuracy    <       0.00000170 Ry

     iteration # 21     ecut=    10.00 Ry     beta= 0.70
     Davidson diagonalization with overlap

---- Real-time Memory Report at c_bands before calling an iterative solver
           128 MiB given to the printing process from OS
             0 MiB allocation reported by mallinfo(arena+hblkhd)
          1166 MiB available memory on the node where the printing process lives
------------------
     ethr =  2.84E-09,  avg # of iterations =  4.0

     negative rho (up, down):  1.593E-01 0.000E+00

     total cpu time spent up to now is        5.0 secs

     total energy              =      -1.83817353 Ry
     estimated scf accuracy    <       0.00000123 Ry

     iteration # 22     ecut=    10.00 Ry     beta= 0.70
     Davidson diagonalization with overlap

---- Real-time Memory Report at c_bands before calling an iterative solver
           128 MiB given to the printing process from OS
             0 MiB allocation reported by mallinfo(arena+hblkhd)
          1166 MiB available memory on the node where the printing process lives
------------------
     ethr =  2.84E-09,  avg # of iterations =  4.0

     negative rho (up, down):  1.593E-01 0.000E+00

     total cpu time spent up to now is        5.2 secs

     total energy              =      -1.83817188 Ry
     estimated scf accuracy    <       0.00000054 Ry

     iteration # 23     ecut=    10.00 Ry     beta= 0.70
     Davidson diagonalization with overlap

---- Real-time Memory Report at c_bands before calling an iterative solver
           128 MiB given to the printing process from OS
             0 MiB allocation reported by mallinfo(arena+hblkhd)
          1166 MiB available memory on the node where the printing process lives
------------------
     ethr =  2.84E-09,  avg # of iterations =  4.0

     negative rho (up, down):  1.593E-01 0.000E+00

     total cpu time spent up to now is        5.4 secs

     total energy              =      -1.83813463 Ry
     estimated scf accuracy    <       0.00000250 Ry

     iteration # 24     ecut=    10.00 Ry     beta= 0.70
     Davidson diagonalization with overlap

---- Real-time Memory Report at c_bands before calling an iterative solver
           128 MiB given to the printing process from OS
             0 MiB allocation reported by mallinfo(arena+hblkhd)
          1166 MiB available memory on the node where the printing process lives
------------------
     ethr =  2.84E-09,  avg # of iterations =  4.0

     negative rho (up, down):  1.593E-01 0.000E+00

     total cpu time spent up to now is        5.7 secs

     total energy              =      -1.83817369 Ry
     estimated scf accuracy    <       0.00000053 Ry

     iteration # 25     ecut=    10.00 Ry     beta= 0.70
     Davidson diagonalization with overlap

---- Real-time Memory Report at c_bands before calling an iterative solver
           128 MiB given to the printing process from OS
             0 MiB allocation reported by mallinfo(arena+hblkhd)
          1166 MiB available memory on the node where the printing process lives
------------------
     ethr =  2.84E-09,  avg # of iterations =  4.0

     negative rho (up, down):  1.593E-01 0.000E+00

     total cpu time spent up to now is        5.9 secs

     total energy              =      -1.83818776 Ry
     estimated scf accuracy    <       0.00000238 Ry

     iteration # 26     ecut=    10.00 Ry     beta= 0.70
     Davidson diagonalization with overlap

---- Real-time Memory Report at c_bands before calling an iterative solver
           128 MiB given to the printing process from OS
             0 MiB allocation reported by mallinfo(arena+hblkhd)
          1166 MiB available memory on the node where the printing process lives
------------------
     ethr =  2.84E-09,  avg # of iterations =  4.0

     negative rho (up, down):  1.593E-01 0.000E+00

     total cpu time spent up to now is        6.1 secs

     total energy              =      -1.83818889 Ry
     estimated scf accuracy    <       0.00000087 Ry

     iteration # 27     ecut=    10.00 Ry     beta= 0.70
     Davidson diagonalization with overlap

---- Real-time Memory Report at c_bands before calling an iterative solver
           128 MiB given to the printing process from OS
             0 MiB allocation reported by mallinfo(arena+hblkhd)
          1166 MiB available memory on the node where the printing process lives
------------------
     ethr =  2.84E-09,  avg # of iterations =  1.0

     negative rho (up, down):  1.593E-01 0.000E+00

     total cpu time spent up to now is        6.3 secs

     total energy              =      -1.83817898 Ry
     estimated scf accuracy    <       0.00000087 Ry

     iteration # 28     ecut=    10.00 Ry     beta= 0.70
     Davidson diagonalization with overlap

---- Real-time Memory Report at c_bands before calling an iterative solver
           128 MiB given to the printing process from OS
             0 MiB allocation reported by mallinfo(arena+hblkhd)
          1166 MiB available memory on the node where the printing process lives
------------------
     ethr =  2.84E-09,  avg # of iterations =  2.0

     negative rho (up, down):  1.594E-01 0.000E+00

     total cpu time spent up to now is        6.5 secs

     total energy              =      -1.83815388 Ry
     estimated scf accuracy    <       0.00000045 Ry

     iteration # 29     ecut=    10.00 Ry     beta= 0.70
     Davidson diagonalization with overlap

---- Real-time Memory Report at c_bands before calling an iterative solver
           128 MiB given to the printing process from OS
             0 MiB allocation reported by mallinfo(arena+hblkhd)
          1166 MiB available memory on the node where the printing process lives
------------------
     ethr =  2.84E-09,  avg # of iterations =  4.0

     negative rho (up, down):  1.594E-01 0.000E+00

     total cpu time spent up to now is        6.8 secs

     total energy              =      -1.83815752 Ry
     estimated scf accuracy    <       0.00000372 Ry

     iteration # 30     ecut=    10.00 Ry     beta= 0.70
     Davidson diagonalization with overlap

---- Real-time Memory Report at c_bands before calling an iterative solver
           128 MiB given to the printing process from OS
             0 MiB allocation reported by mallinfo(arena+hblkhd)
          1166 MiB available memory on the node where the printing process lives
------------------
     ethr =  2.84E-09,  avg # of iterations =  4.0

     negative rho (up, down):  1.594E-01 0.000E+00

     total cpu time spent up to now is        7.0 secs

     total energy              =      -1.83817808 Ry
     estimated scf accuracy    <       0.00000101 Ry

     iteration # 31     ecut=    10.00 Ry     beta= 0.70
     Davidson diagonalization with overlap

---- Real-time Memory Report at c_bands before calling an iterative solver
           128 MiB given to the printing process from OS
             0 MiB allocation reported by mallinfo(arena+hblkhd)
          1166 MiB available memory on the node where the printing process lives
------------------
     ethr =  2.84E-09,  avg # of iterations =  4.0

     negative rho (up, down):  1.594E-01 0.000E+00

     total cpu time spent up to now is        7.2 secs

     total energy              =      -1.83814498 Ry
     estimated scf accuracy    <       0.00000023 Ry

     iteration # 32     ecut=    10.00 Ry     beta= 0.70
     Davidson diagonalization with overlap

---- Real-time Memory Report at c_bands before calling an iterative solver
           128 MiB given to the printing process from OS
             0 MiB allocation reported by mallinfo(arena+hblkhd)
          1166 MiB available memory on the node where the printing process lives
------------------
     ethr =  2.84E-09,  avg # of iterations =  4.0

     negative rho (up, down):  1.594E-01 0.000E+00

     total cpu time spent up to now is        7.5 secs

     total energy              =      -1.83813944 Ry
     estimated scf accuracy    <       0.00000030 Ry

     iteration # 33     ecut=    10.00 Ry     beta= 0.70
     Davidson diagonalization with overlap

---- Real-time Memory Report at c_bands before calling an iterative solver
           128 MiB given to the printing process from OS
             0 MiB allocation reported by mallinfo(arena+hblkhd)
          1166 MiB available memory on the node where the printing process lives
------------------
     ethr =  2.84E-09,  avg # of iterations =  3.0

     negative rho (up, down):  1.594E-01 0.000E+00

     total cpu time spent up to now is        7.7 secs

     total energy              =      -1.83814039 Ry
     estimated scf accuracy    <       0.00000276 Ry

     iteration # 34     ecut=    10.00 Ry     beta= 0.70
     Davidson diagonalization with overlap

---- Real-time Memory Report at c_bands before calling an iterative solver
           128 MiB given to the printing process from OS
             0 MiB allocation reported by mallinfo(arena+hblkhd)
          1166 MiB available memory on the node where the printing process lives
------------------
     ethr =  2.84E-09,  avg # of iterations =  1.0

     negative rho (up, down):  1.594E-01 0.000E+00

     total cpu time spent up to now is        7.9 secs

     total energy              =      -1.83814060 Ry
     estimated scf accuracy    <       0.00000269 Ry

     iteration # 35     ecut=    10.00 Ry     beta= 0.70
     Davidson diagonalization with overlap

---- Real-time Memory Report at c_bands before calling an iterative solver
           128 MiB given to the printing process from OS
             0 MiB allocation reported by mallinfo(arena+hblkhd)
          1166 MiB available memory on the node where the printing process lives
------------------
     ethr =  2.84E-09,  avg # of iterations =  2.0

     negative rho (up, down):  1.594E-01 0.000E+00

     total cpu time spent up to now is        8.1 secs

     total energy              =      -1.83814046 Ry
     estimated scf accuracy    <       0.00000264 Ry

     iteration # 36     ecut=    10.00 Ry     beta= 0.70
     Davidson diagonalization with overlap

---- Real-time Memory Report at c_bands before calling an iterative solver
           128 MiB given to the printing process from OS
             0 MiB allocation reported by mallinfo(arena+hblkhd)
          1166 MiB available memory on the node where the printing process lives
------------------
     ethr =  2.84E-09,  avg # of iterations =  1.0

     negative rho (up, down):  1.594E-01 0.000E+00

     total cpu time spent up to now is        8.3 secs

     total energy              =      -1.83816274 Ry
     estimated scf accuracy    <       0.00000262 Ry

     iteration # 37     ecut=    10.00 Ry     beta= 0.70
     Davidson diagonalization with overlap

---- Real-time Memory Report at c_bands before calling an iterative solver
           128 MiB given to the printing process from OS
             0 MiB allocation reported by mallinfo(arena+hblkhd)
          1166 MiB available memory on the node where the printing process lives
------------------
     ethr =  2.84E-09,  avg # of iterations =  4.0

     negative rho (up, down):  1.594E-01 0.000E+00

     total cpu time spent up to now is        8.6 secs

     total energy              =      -1.83814675 Ry
     estimated scf accuracy    <       0.00000426 Ry

     iteration # 38     ecut=    10.00 Ry     beta= 0.70
     Davidson diagonalization with overlap

---- Real-time Memory Report at c_bands before calling an iterative solver
           128 MiB given to the printing process from OS
             0 MiB allocation reported by mallinfo(arena+hblkhd)
          1166 MiB available memory on the node where the printing process lives
------------------
     ethr =  2.84E-09,  avg # of iterations =  4.0

     negative rho (up, down):  1.594E-01 0.000E+00

     total cpu time spent up to now is        8.8 secs

     total energy              =      -1.83815159 Ry
     estimated scf accuracy    <       0.00000317 Ry

     iteration # 39     ecut=    10.00 Ry     beta= 0.70
     Davidson diagonalization with overlap

---- Real-time Memory Report at c_bands before calling an iterative solver
           128 MiB given to the printing process from OS
             0 MiB allocation reported by mallinfo(arena+hblkhd)
          1166 MiB available memory on the node where the printing process lives
------------------
     ethr =  2.84E-09,  avg # of iterations =  4.0

     negative rho (up, down):  1.594E-01 0.000E+00

     total cpu time spent up to now is        9.0 secs

     total energy              =      -1.83815875 Ry
     estimated scf accuracy    <       0.00000436 Ry

     iteration # 40     ecut=    10.00 Ry     beta= 0.70
     Davidson diagonalization with overlap

---- Real-time Memory Report at c_bands before calling an iterative solver
           128 MiB given to the printing process from OS
             0 MiB allocation reported by mallinfo(arena+hblkhd)
          1166 MiB available memory on the node where the printing process lives
------------------
     ethr =  2.84E-09,  avg # of iterations =  4.0

     negative rho (up, down):  1.594E-01 0.000E+00

     total cpu time spent up to now is        9.3 secs

     total energy              =      -1.83816034 Ry
     estimated scf accuracy    <       0.00000114 Ry

     iteration # 41     ecut=    10.00 Ry     beta= 0.70
     Davidson diagonalization with overlap

---- Real-time Memory Report at c_bands before calling an iterative solver
           128 MiB given to the printing process from OS
             0 MiB allocation reported by mallinfo(arena+hblkhd)
          1166 MiB available memory on the node where the printing process lives
------------------
     ethr =  2.84E-09,  avg # of iterations =  4.0

     negative rho (up, down):  1.594E-01 0.000E+00

     total cpu time spent up to now is        9.5 secs

     total energy              =      -1.83816071 Ry
     estimated scf accuracy    <       0.00000172 Ry

     iteration # 42     ecut=    10.00 Ry     beta= 0.70
     Davidson diagonalization with overlap

---- Real-time Memory Report at c_bands before calling an iterative solver
           128 MiB given to the printing process from OS
             0 MiB allocation reported by mallinfo(arena+hblkhd)
          1166 MiB available memory on the node where the printing process lives
------------------
     ethr =  2.84E-09,  avg # of iterations =  4.0

     negative rho (up, down):  1.594E-01 0.000E+00

     total cpu time spent up to now is        9.7 secs

     total energy              =      -1.83816533 Ry
     estimated scf accuracy    <       0.00000122 Ry

     iteration # 43     ecut=    10.00 Ry     beta= 0.70
     Davidson diagonalization with overlap

---- Real-time Memory Report at c_bands before calling an iterative solver
           128 MiB given to the printing process from OS
             0 MiB allocation reported by mallinfo(arena+hblkhd)
          1166 MiB available memory on the node where the printing process lives
------------------
     ethr =  2.84E-09,  avg # of iterations =  1.0

     negative rho (up, down):  1.593E-01 0.000E+00

     total cpu time spent up to now is        9.9 secs

     total energy              =      -1.83817287 Ry
     estimated scf accuracy    <       0.00000134 Ry

     iteration # 44     ecut=    10.00 Ry     beta= 0.70
     Davidson diagonalization with overlap

---- Real-time Memory Report at c_bands before calling an iterative solver
           128 MiB given to the printing process from OS
             0 MiB allocation reported by mallinfo(arena+hblkhd)
          1166 MiB available memory on the node where the printing process lives
------------------
     ethr =  2.84E-09,  avg # of iterations =  3.0

     negative rho (up, down):  1.594E-01 0.000E+00

     total cpu time spent up to now is       10.1 secs

     total energy              =      -1.83816519 Ry
     estimated scf accuracy    <       0.00000069 Ry

     iteration # 45     ecut=    10.00 Ry     beta= 0.70
     Davidson diagonalization with overlap

---- Real-time Memory Report at c_bands before calling an iterative solver
           128 MiB given to the printing process from OS
             0 MiB allocation reported by mallinfo(arena+hblkhd)
          1166 MiB available memory on the node where the printing process lives
------------------
     ethr =  2.84E-09,  avg # of iterations =  3.0

     negative rho (up, down):  1.594E-01 0.000E+00

     total cpu time spent up to now is       10.4 secs

     total energy              =      -1.83814772 Ry
     estimated scf accuracy    <       0.00000123 Ry

     iteration # 46     ecut=    10.00 Ry     beta= 0.70
     Davidson diagonalization with overlap

---- Real-time Memory Report at c_bands before calling an iterative solver
           128 MiB given to the printing process from OS
             0 MiB allocation reported by mallinfo(arena+hblkhd)
          1166 MiB available memory on the node where the printing process lives
------------------
     ethr =  2.84E-09,  avg # of iterations =  4.0

     negative rho (up, down):  1.593E-01 0.000E+00

     total cpu time spent up to now is       10.6 secs

     total energy              =      -1.83817359 Ry
     estimated scf accuracy    <       0.00000618 Ry

     iteration # 47     ecut=    10.00 Ry     beta= 0.70
     Davidson diagonalization with overlap

---- Real-time Memory Report at c_bands before calling an iterative solver
           128 MiB given to the printing process from OS
             0 MiB allocation reported by mallinfo(arena+hblkhd)
          1166 MiB available memory on the node where the printing process lives
------------------
     ethr =  2.84E-09,  avg # of iterations =  4.0

     negative rho (up, down):  1.594E-01 0.000E+00

     total cpu time spent up to now is       10.8 secs

     total energy              =      -1.83813125 Ry
     estimated scf accuracy    <       0.00000114 Ry

     iteration # 48     ecut=    10.00 Ry     beta= 0.70
     Davidson diagonalization with overlap

---- Real-time Memory Report at c_bands before calling an iterative solver
           128 MiB given to the printing process from OS
             0 MiB allocation reported by mallinfo(arena+hblkhd)
          1166 MiB available memory on the node where the printing process lives
------------------
     ethr =  2.84E-09,  avg # of iterations =  4.0

     negative rho (up, down):  1.594E-01 0.000E+00

     total cpu time spent up to now is       11.1 secs

     total energy              =      -1.83817505 Ry
     estimated scf accuracy    <       0.00000058 Ry

     iteration # 49     ecut=    10.00 Ry     beta= 0.70
     Davidson diagonalization with overlap

---- Real-time Memory Report at c_bands before calling an iterative solver
           128 MiB given to the printing process from OS
             0 MiB allocation reported by mallinfo(arena+hblkhd)
          1166 MiB available memory on the node where the printing process lives
------------------
     ethr =  2.84E-09,  avg # of iterations =  4.0

     negative rho (up, down):  1.593E-01 0.000E+00

     total cpu time spent up to now is       11.3 secs

     total energy              =      -1.83815468 Ry
     estimated scf accuracy    <       0.00000074 Ry

     iteration # 50     ecut=    10.00 Ry     beta= 0.70
     Davidson diagonalization with overlap

---- Real-time Memory Report at c_bands before calling an iterative solver
           128 MiB given to the printing process from OS
             0 MiB allocation reported by mallinfo(arena+hblkhd)
          1166 MiB available memory on the node where the printing process lives
------------------
     ethr =  2.84E-09,  avg # of iterations =  4.0

     negative rho (up, down):  1.594E-01 0.000E+00

     total cpu time spent up to now is       11.5 secs

     total energy              =      -1.83815614 Ry
     estimated scf accuracy    <       0.00000092 Ry

     iteration # 51     ecut=    10.00 Ry     beta= 0.70
     Davidson diagonalization with overlap

---- Real-time Memory Report at c_bands before calling an iterative solver
           128 MiB given to the printing process from OS
             0 MiB allocation reported by mallinfo(arena+hblkhd)
          1166 MiB available memory on the node where the printing process lives
------------------
     ethr =  2.84E-09,  avg # of iterations =  3.0

     negative rho (up, down):  1.594E-01 0.000E+00

     total cpu time spent up to now is       11.8 secs

     total energy              =      -1.83813460 Ry
     estimated scf accuracy    <       0.00000064 Ry

     iteration # 52     ecut=    10.00 Ry     beta= 0.70
     Davidson diagonalization with overlap

---- Real-time Memory Report at c_bands before calling an iterative solver
           128 MiB given to the printing process from OS
             0 MiB allocation reported by mallinfo(arena+hblkhd)
          1166 MiB available memory on the node where the printing process lives
------------------
     ethr =  2.84E-09,  avg # of iterations =  4.0

     negative rho (up, down):  1.594E-01 0.000E+00

     total cpu time spent up to now is       12.0 secs

     total energy              =      -1.83814615 Ry
     estimated scf accuracy    <       0.00000026 Ry

     iteration # 53     ecut=    10.00 Ry     beta= 0.70
     Davidson diagonalization with overlap

---- Real-time Memory Report at c_bands before calling an iterative solver
           128 MiB given to the printing process from OS
             0 MiB allocation reported by mallinfo(arena+hblkhd)
          1166 MiB available memory on the node where the printing process lives
------------------
     ethr =  2.84E-09,  avg # of iterations =  2.0

     negative rho (up, down):  1.594E-01 0.000E+00

     total cpu time spent up to now is       12.2 secs

     total energy              =      -1.83816212 Ry
     estimated scf accuracy    <       0.00000070 Ry

     iteration # 54     ecut=    10.00 Ry     beta= 0.70
     Davidson diagonalization with overlap

---- Real-time Memory Report at c_bands before calling an iterative solver
           128 MiB given to the printing process from OS
             0 MiB allocation reported by mallinfo(arena+hblkhd)
          1166 MiB available memory on the node where the printing process lives
------------------
     ethr =  2.84E-09,  avg # of iterations =  3.0

     negative rho (up, down):  1.593E-01 0.000E+00

     total cpu time spent up to now is       12.4 secs

     total energy              =      -1.83817293 Ry
     estimated scf accuracy    <       0.00000241 Ry

     iteration # 55     ecut=    10.00 Ry     beta= 0.70
     Davidson diagonalization with overlap

---- Real-time Memory Report at c_bands before calling an iterative solver
           128 MiB given to the printing process from OS
             0 MiB allocation reported by mallinfo(arena+hblkhd)
          1166 MiB available memory on the node where the printing process lives
------------------
     ethr =  2.84E-09,  avg # of iterations =  4.0

     negative rho (up, down):  1.593E-01 0.000E+00

     total cpu time spent up to now is       12.7 secs

     total energy              =      -1.83817356 Ry
     estimated scf accuracy    <       0.00000028 Ry

     iteration # 56     ecut=    10.00 Ry     beta= 0.70
     Davidson diagonalization with overlap

---- Real-time Memory Report at c_bands before calling an iterative solver
           128 MiB given to the printing process from OS
             0 MiB allocation reported by mallinfo(arena+hblkhd)
          1166 MiB available memory on the node where the printing process lives
------------------
     ethr =  2.84E-09,  avg # of iterations =  3.0

     negative rho (up, down):  1.594E-01 0.000E+00

     total cpu time spent up to now is       12.9 secs

     total energy              =      -1.83814115 Ry
     estimated scf accuracy    <       0.00000070 Ry

     iteration # 57     ecut=    10.00 Ry     beta= 0.70
     Davidson diagonalization with overlap

---- Real-time Memory Report at c_bands before calling an iterative solver
           128 MiB given to the printing process from OS
             0 MiB allocation reported by mallinfo(arena+hblkhd)
          1166 MiB available memory on the node where the printing process lives
------------------
     ethr =  2.84E-09,  avg # of iterations =  4.0

     negative rho (up, down):  1.594E-01 0.000E+00

     total cpu time spent up to now is       13.1 secs

     total energy              =      -1.83814995 Ry
     estimated scf accuracy    <       0.00000074 Ry

     iteration # 58     ecut=    10.00 Ry     beta= 0.70
     Davidson diagonalization with overlap

---- Real-time Memory Report at c_bands before calling an iterative solver
           128 MiB given to the printing process from OS
             0 MiB allocation reported by mallinfo(arena+hblkhd)
          1166 MiB available memory on the node where the printing process lives
------------------
     ethr =  2.84E-09,  avg # of iterations =  1.0

     negative rho (up, down):  1.594E-01 0.000E+00

     total cpu time spent up to now is       13.3 secs

     total energy              =      -1.83814971 Ry
     estimated scf accuracy    <       0.00000076 Ry

     iteration # 59     ecut=    10.00 Ry     beta= 0.70
     Davidson diagonalization with overlap

---- Real-time Memory Report at c_bands before calling an iterative solver
           128 MiB given to the printing process from OS
             0 MiB allocation reported by mallinfo(arena+hblkhd)
          1166 MiB available memory on the node where the printing process lives
------------------
     ethr =  2.84E-09,  avg # of iterations =  2.0

     negative rho (up, down):  1.594E-01 0.000E+00

     total cpu time spent up to now is       13.5 secs

     total energy              =      -1.83814633 Ry
     estimated scf accuracy    <       0.00000078 Ry

     iteration # 60     ecut=    10.00 Ry     beta= 0.70
     Davidson diagonalization with overlap

---- Real-time Memory Report at c_bands before calling an iterative solver
           128 MiB given to the printing process from OS
             0 MiB allocation reported by mallinfo(arena+hblkhd)
          1166 MiB available memory on the node where the printing process lives
------------------
     ethr =  2.84E-09,  avg # of iterations =  2.0

     negative rho (up, down):  1.594E-01 0.000E+00

     total cpu time spent up to now is       13.8 secs

     total energy              =      -1.83816534 Ry
     estimated scf accuracy    <       0.00000076 Ry

     iteration # 61     ecut=    10.00 Ry     beta= 0.70
     Davidson diagonalization with overlap

---- Real-time Memory Report at c_bands before calling an iterative solver
           128 MiB given to the printing process from OS
             0 MiB allocation reported by mallinfo(arena+hblkhd)
          1166 MiB available memory on the node where the printing process lives
------------------
     ethr =  2.84E-09,  avg # of iterations =  4.0

     negative rho (up, down):  1.594E-01 0.000E+00

     total cpu time spent up to now is       14.0 secs

     total energy              =      -1.83814234 Ry
     estimated scf accuracy    <       0.00000106 Ry

     iteration # 62     ecut=    10.00 Ry     beta= 0.70
     Davidson diagonalization with overlap

---- Real-time Memory Report at c_bands before calling an iterative solver
           128 MiB given to the printing process from OS
             0 MiB allocation reported by mallinfo(arena+hblkhd)
          1166 MiB available memory on the node where the printing process lives
------------------
     ethr =  2.84E-09,  avg # of iterations =  4.0

     negative rho (up, down):  1.594E-01 0.000E+00

     total cpu time spent up to now is       14.2 secs

     total energy              =      -1.83815838 Ry
     estimated scf accuracy    <       0.00000069 Ry

     iteration # 63     ecut=    10.00 Ry     beta= 0.70
     Davidson diagonalization with overlap

---- Real-time Memory Report at c_bands before calling an iterative solver
           128 MiB given to the printing process from OS
             0 MiB allocation reported by mallinfo(arena+hblkhd)
          1166 MiB available memory on the node where the printing process lives
------------------
     ethr =  2.84E-09,  avg # of iterations =  3.0

     negative rho (up, down):  1.594E-01 0.000E+00

     total cpu time spent up to now is       14.5 secs

     total energy              =      -1.83814610 Ry
     estimated scf accuracy    <       0.00000214 Ry

     iteration # 64     ecut=    10.00 Ry     beta= 0.70
     Davidson diagonalization with overlap

---- Real-time Memory Report at c_bands before calling an iterative solver
           128 MiB given to the printing process from OS
             0 MiB allocation reported by mallinfo(arena+hblkhd)
          1166 MiB available memory on the node where the printing process lives
------------------
     ethr =  2.84E-09,  avg # of iterations =  3.0

     negative rho (up, down):  1.593E-01 0.000E+00

     total cpu time spent up to now is       14.7 secs

     total energy              =      -1.83819009 Ry
     estimated scf accuracy    <       0.00000067 Ry

     iteration # 65     ecut=    10.00 Ry     beta= 0.70
     Davidson diagonalization with overlap

---- Real-time Memory Report at c_bands before calling an iterative solver
           128 MiB given to the printing process from OS
             0 MiB allocation reported by mallinfo(arena+hblkhd)
          1166 MiB available memory on the node where the printing process lives
------------------
     ethr =  2.84E-09,  avg # of iterations =  4.0

     negative rho (up, down):  1.593E-01 0.000E+00

     total cpu time spent up to now is       15.0 secs

     total energy              =      -1.83819114 Ry
     estimated scf accuracy    <       0.00000273 Ry

     iteration # 66     ecut=    10.00 Ry     beta= 0.70
     Davidson diagonalization with overlap

---- Real-time Memory Report at c_bands before calling an iterative solver
           128 MiB given to the printing process from OS
             0 MiB allocation reported by mallinfo(arena+hblkhd)
          1166 MiB available memory on the node where the printing process lives
------------------
     ethr =  2.84E-09,  avg # of iterations =  2.0

     negative rho (up, down):  1.593E-01 0.000E+00

     total cpu time spent up to now is       15.2 secs

     total energy              =      -1.83821226 Ry
     estimated scf accuracy    <       0.00000322 Ry

     iteration # 67     ecut=    10.00 Ry     beta= 0.70
     Davidson diagonalization with overlap

---- Real-time Memory Report at c_bands before calling an iterative solver
           128 MiB given to the printing process from OS
             0 MiB allocation reported by mallinfo(arena+hblkhd)
          1166 MiB available memory on the node where the printing process lives
------------------
     ethr =  2.84E-09,  avg # of iterations =  4.0

     negative rho (up, down):  1.593E-01 0.000E+00

     total cpu time spent up to now is       15.4 secs

     total energy              =      -1.83818837 Ry
     estimated scf accuracy    <       0.00000036 Ry

     iteration # 68     ecut=    10.00 Ry     beta= 0.70
     Davidson diagonalization with overlap

---- Real-time Memory Report at c_bands before calling an iterative solver
           128 MiB given to the printing process from OS
             0 MiB allocation reported by mallinfo(arena+hblkhd)
          1166 MiB available memory on the node where the printing process lives
------------------
     ethr =  2.84E-09,  avg # of iterations =  4.0

     negative rho (up, down):  1.593E-01 0.000E+00

     total cpu time spent up to now is       15.7 secs

     total energy              =      -1.83820140 Ry
     estimated scf accuracy    <       0.00000266 Ry

     iteration # 69     ecut=    10.00 Ry     beta= 0.70
     Davidson diagonalization with overlap

---- Real-time Memory Report at c_bands before calling an iterative solver
           128 MiB given to the printing process from OS
             0 MiB allocation reported by mallinfo(arena+hblkhd)
          1166 MiB available memory on the node where the printing process lives
------------------
     ethr =  2.84E-09,  avg # of iterations =  4.0

     negative rho (up, down):  1.593E-01 0.000E+00

     total cpu time spent up to now is       15.9 secs

     total energy              =      -1.83821665 Ry
     estimated scf accuracy    <       0.00000178 Ry

     iteration # 70     ecut=    10.00 Ry     beta= 0.70
     Davidson diagonalization with overlap

---- Real-time Memory Report at c_bands before calling an iterative solver
           128 MiB given to the printing process from OS
             0 MiB allocation reported by mallinfo(arena+hblkhd)
          1166 MiB available memory on the node where the printing process lives
------------------
     ethr =  2.84E-09,  avg # of iterations =  4.0

     negative rho (up, down):  1.593E-01 0.000E+00

     total cpu time spent up to now is       16.2 secs

     total energy              =      -1.83818277 Ry
     estimated scf accuracy    <       0.00000022 Ry

     iteration # 71     ecut=    10.00 Ry     beta= 0.70
     Davidson diagonalization with overlap

---- Real-time Memory Report at c_bands before calling an iterative solver
           128 MiB given to the printing process from OS
             0 MiB allocation reported by mallinfo(arena+hblkhd)
          1166 MiB available memory on the node where the printing process lives
------------------
     ethr =  2.84E-09,  avg # of iterations =  4.0

     negative rho (up, down):  1.593E-01 0.000E+00

     total cpu time spent up to now is       16.4 secs

     total energy              =      -1.83817396 Ry
     estimated scf accuracy    <       0.00000570 Ry

     iteration # 72     ecut=    10.00 Ry     beta= 0.70
     Davidson diagonalization with overlap

---- Real-time Memory Report at c_bands before calling an iterative solver
           128 MiB given to the printing process from OS
             0 MiB allocation reported by mallinfo(arena+hblkhd)
          1166 MiB available memory on the node where the printing process lives
------------------
     ethr =  2.84E-09,  avg # of iterations =  4.0

     negative rho (up, down):  1.593E-01 0.000E+00

     total cpu time spent up to now is       16.6 secs

     total energy              =      -1.83817417 Ry
     estimated scf accuracy    <       0.00001016 Ry

     iteration # 73     ecut=    10.00 Ry     beta= 0.70
     Davidson diagonalization with overlap

---- Real-time Memory Report at c_bands before calling an iterative solver
           128 MiB given to the printing process from OS
             0 MiB allocation reported by mallinfo(arena+hblkhd)
          1166 MiB available memory on the node where the printing process lives
------------------
     ethr =  2.84E-09,  avg # of iterations =  4.0

     negative rho (up, down):  1.593E-01 0.000E+00

     total cpu time spent up to now is       16.9 secs

     total energy              =      -1.83818380 Ry
     estimated scf accuracy    <       0.00000460 Ry

     iteration # 74     ecut=    10.00 Ry     beta= 0.70
     Davidson diagonalization with overlap

---- Real-time Memory Report at c_bands before calling an iterative solver
           128 MiB given to the printing process from OS
             0 MiB allocation reported by mallinfo(arena+hblkhd)
          1166 MiB available memory on the node where the printing process lives
------------------
     ethr =  2.84E-09,  avg # of iterations =  4.0

     negative rho (up, down):  1.593E-01 0.000E+00

     total cpu time spent up to now is       17.1 secs

     total energy              =      -1.83818601 Ry
     estimated scf accuracy    <       0.00000147 Ry

     iteration # 75     ecut=    10.00 Ry     beta= 0.70
     Davidson diagonalization with overlap

---- Real-time Memory Report at c_bands before calling an iterative solver
           128 MiB given to the printing process from OS
             0 MiB allocation reported by mallinfo(arena+hblkhd)
          1166 MiB available memory on the node where the printing process lives
------------------
     ethr =  2.84E-09,  avg # of iterations =  3.0

     negative rho (up, down):  1.593E-01 0.000E+00

     total cpu time spent up to now is       17.3 secs

     total energy              =      -1.83818815 Ry
     estimated scf accuracy    <       0.00000320 Ry

     iteration # 76     ecut=    10.00 Ry     beta= 0.70
     Davidson diagonalization with overlap

---- Real-time Memory Report at c_bands before calling an iterative solver
           128 MiB given to the printing process from OS
             0 MiB allocation reported by mallinfo(arena+hblkhd)
          1166 MiB available memory on the node where the printing process lives
------------------
     ethr =  2.84E-09,  avg # of iterations =  3.0

     negative rho (up, down):  1.593E-01 0.000E+00

     total cpu time spent up to now is       17.5 secs

     total energy              =      -1.83818917 Ry
     estimated scf accuracy    <       0.00000373 Ry

     iteration # 77     ecut=    10.00 Ry     beta= 0.70
     Davidson diagonalization with overlap

---- Real-time Memory Report at c_bands before calling an iterative solver
           128 MiB given to the printing process from OS
             0 MiB allocation reported by mallinfo(arena+hblkhd)
          1166 MiB available memory on the node where the printing process lives
------------------
     ethr =  2.84E-09,  avg # of iterations =  3.0

     negative rho (up, down):  1.593E-01 0.000E+00

     total cpu time spent up to now is       17.8 secs

     total energy              =      -1.83818270 Ry
     estimated scf accuracy    <       0.00000565 Ry

     iteration # 78     ecut=    10.00 Ry     beta= 0.70
     Davidson diagonalization with overlap

---- Real-time Memory Report at c_bands before calling an iterative solver
           128 MiB given to the printing process from OS
             0 MiB allocation reported by mallinfo(arena+hblkhd)
          1166 MiB available memory on the node where the printing process lives
------------------
     ethr =  2.84E-09,  avg # of iterations =  4.0

     negative rho (up, down):  1.593E-01 0.000E+00

     total cpu time spent up to now is       18.0 secs

     total energy              =      -1.83814911 Ry
     estimated scf accuracy    <       0.00000038 Ry

     iteration # 79     ecut=    10.00 Ry     beta= 0.70
     Davidson diagonalization with overlap

---- Real-time Memory Report at c_bands before calling an iterative solver
           128 MiB given to the printing process from OS
             0 MiB allocation reported by mallinfo(arena+hblkhd)
          1166 MiB available memory on the node where the printing process lives
------------------
     ethr =  2.84E-09,  avg # of iterations =  4.0

     negative rho (up, down):  1.594E-01 0.000E+00

     total cpu time spent up to now is       18.2 secs

     total energy              =      -1.83813558 Ry
     estimated scf accuracy    <       0.00000192 Ry

     iteration # 80     ecut=    10.00 Ry     beta= 0.70
     Davidson diagonalization with overlap

---- Real-time Memory Report at c_bands before calling an iterative solver
           128 MiB given to the printing process from OS
             0 MiB allocation reported by mallinfo(arena+hblkhd)
          1166 MiB available memory on the node where the printing process lives
------------------
     ethr =  2.84E-09,  avg # of iterations =  4.0

     negative rho (up, down):  1.594E-01 0.000E+00

     total cpu time spent up to now is       18.5 secs

     total energy              =      -1.83812891 Ry
     estimated scf accuracy    <       0.00000171 Ry

     iteration # 81     ecut=    10.00 Ry     beta= 0.70
     Davidson diagonalization with overlap

---- Real-time Memory Report at c_bands before calling an iterative solver
           128 MiB given to the printing process from OS
             0 MiB allocation reported by mallinfo(arena+hblkhd)
          1166 MiB available memory on the node where the printing process lives
------------------
     ethr =  2.84E-09,  avg # of iterations =  4.0

     negative rho (up, down):  1.594E-01 0.000E+00

     total cpu time spent up to now is       18.7 secs

     total energy              =      -1.83814446 Ry
     estimated scf accuracy    <       0.00000265 Ry

     iteration # 82     ecut=    10.00 Ry     beta= 0.70
     Davidson diagonalization with overlap

---- Real-time Memory Report at c_bands before calling an iterative solver
           128 MiB given to the printing process from OS
             0 MiB allocation reported by mallinfo(arena+hblkhd)
          1166 MiB available memory on the node where the printing process lives
------------------
     ethr =  2.84E-09,  avg # of iterations =  2.0

     negative rho (up, down):  1.594E-01 0.000E+00

     total cpu time spent up to now is       18.9 secs

     total energy              =      -1.83813925 Ry
     estimated scf accuracy    <       0.00000388 Ry

     iteration # 83     ecut=    10.00 Ry     beta= 0.70
     Davidson diagonalization with overlap

---- Real-time Memory Report at c_bands before calling an iterative solver
           128 MiB given to the printing process from OS
             0 MiB allocation reported by mallinfo(arena+hblkhd)
          1166 MiB available memory on the node where the printing process lives
------------------
     ethr =  2.84E-09,  avg # of iterations =  3.0

     negative rho (up, down):  1.593E-01 0.000E+00

     total cpu time spent up to now is       19.1 secs

     total energy              =      -1.83817745 Ry
     estimated scf accuracy    <       0.00000547 Ry

     iteration # 84     ecut=    10.00 Ry     beta= 0.70
     Davidson diagonalization with overlap

---- Real-time Memory Report at c_bands before calling an iterative solver
           128 MiB given to the printing process from OS
             0 MiB allocation reported by mallinfo(arena+hblkhd)
          1166 MiB available memory on the node where the printing process lives
------------------
     ethr =  2.84E-09,  avg # of iterations =  4.0

     negative rho (up, down):  1.593E-01 0.000E+00

     total cpu time spent up to now is       19.4 secs

     total energy              =      -1.83817206 Ry
     estimated scf accuracy    <       0.00000114 Ry

     iteration # 85     ecut=    10.00 Ry     beta= 0.70
     Davidson diagonalization with overlap

---- Real-time Memory Report at c_bands before calling an iterative solver
           128 MiB given to the printing process from OS
             0 MiB allocation reported by mallinfo(arena+hblkhd)
          1166 MiB available memory on the node where the printing process lives
------------------
     ethr =  2.84E-09,  avg # of iterations =  4.0

     negative rho (up, down):  1.593E-01 0.000E+00

     total cpu time spent up to now is       19.6 secs

     total energy              =      -1.83818338 Ry
     estimated scf accuracy    <       0.00000606 Ry

     iteration # 86     ecut=    10.00 Ry     beta= 0.70
     Davidson diagonalization with overlap

---- Real-time Memory Report at c_bands before calling an iterative solver
           128 MiB given to the printing process from OS
             0 MiB allocation reported by mallinfo(arena+hblkhd)
          1164 MiB available memory on the node where the printing process lives
------------------
     ethr =  2.84E-09,  avg # of iterations =  4.0

     negative rho (up, down):  1.593E-01 0.000E+00

     total cpu time spent up to now is       19.8 secs

     total energy              =      -1.83818395 Ry
     estimated scf accuracy    <       0.00000112 Ry

     iteration # 87     ecut=    10.00 Ry     beta= 0.70
     Davidson diagonalization with overlap

---- Real-time Memory Report at c_bands before calling an iterative solver
           128 MiB given to the printing process from OS
             0 MiB allocation reported by mallinfo(arena+hblkhd)
          1164 MiB available memory on the node where the printing process lives
------------------
     ethr =  2.84E-09,  avg # of iterations =  1.0

     negative rho (up, down):  1.594E-01 0.000E+00

     total cpu time spent up to now is       20.0 secs

     total energy              =      -1.83815004 Ry
     estimated scf accuracy    <       0.00000096 Ry

     iteration # 88     ecut=    10.00 Ry     beta= 0.70
     Davidson diagonalization with overlap

---- Real-time Memory Report at c_bands before calling an iterative solver
           128 MiB given to the printing process from OS
             0 MiB allocation reported by mallinfo(arena+hblkhd)
          1164 MiB available memory on the node where the printing process lives
------------------
     ethr =  2.84E-09,  avg # of iterations =  4.0

     negative rho (up, down):  1.594E-01 0.000E+00

     total cpu time spent up to now is       20.3 secs

     total energy              =      -1.83815329 Ry
     estimated scf accuracy    <       0.00000446 Ry

     iteration # 89     ecut=    10.00 Ry     beta= 0.70
     Davidson diagonalization with overlap

---- Real-time Memory Report at c_bands before calling an iterative solver
           128 MiB given to the printing process from OS
             0 MiB allocation reported by mallinfo(arena+hblkhd)
          1164 MiB available memory on the node where the printing process lives
------------------
     ethr =  2.84E-09,  avg # of iterations =  1.0

     negative rho (up, down):  1.593E-01 0.000E+00

     total cpu time spent up to now is       20.5 secs

     total energy              =      -1.83816749 Ry
     estimated scf accuracy    <       0.00000447 Ry

     iteration # 90     ecut=    10.00 Ry     beta= 0.70
     Davidson diagonalization with overlap

---- Real-time Memory Report at c_bands before calling an iterative solver
           128 MiB given to the printing process from OS
             0 MiB allocation reported by mallinfo(arena+hblkhd)
          1164 MiB available memory on the node where the printing process lives
------------------
     ethr =  2.84E-09,  avg # of iterations =  3.0

     negative rho (up, down):  1.593E-01 0.000E+00

     total cpu time spent up to now is       20.7 secs

     total energy              =      -1.83817807 Ry
     estimated scf accuracy    <       0.00000083 Ry

     iteration # 91     ecut=    10.00 Ry     beta= 0.70
     Davidson diagonalization with overlap

---- Real-time Memory Report at c_bands before calling an iterative solver
           128 MiB given to the printing process from OS
             0 MiB allocation reported by mallinfo(arena+hblkhd)
          1164 MiB available memory on the node where the printing process lives
------------------
     ethr =  2.84E-09,  avg # of iterations =  3.0

     negative rho (up, down):  1.594E-01 0.000E+00

     total cpu time spent up to now is       20.9 secs

     total energy              =      -1.83812730 Ry
     estimated scf accuracy    <       0.00000289 Ry

     iteration # 92     ecut=    10.00 Ry     beta= 0.70
     Davidson diagonalization with overlap

---- Real-time Memory Report at c_bands before calling an iterative solver
           128 MiB given to the printing process from OS
             0 MiB allocation reported by mallinfo(arena+hblkhd)
          1164 MiB available memory on the node where the printing process lives
------------------
     ethr =  2.84E-09,  avg # of iterations =  4.0

     negative rho (up, down):  1.594E-01 0.000E+00

     total cpu time spent up to now is       21.1 secs

     total energy              =      -1.83815532 Ry
     estimated scf accuracy    <       0.00000003 Ry

     iteration # 93     ecut=    10.00 Ry     beta= 0.70
     Davidson diagonalization with overlap

---- Real-time Memory Report at c_bands before calling an iterative solver
           128 MiB given to the printing process from OS
             0 MiB allocation reported by mallinfo(arena+hblkhd)
          1164 MiB available memory on the node where the printing process lives
------------------
     ethr =  1.52E-09,  avg # of iterations =  4.0

     negative rho (up, down):  1.594E-01 0.000E+00

     total cpu time spent up to now is       21.4 secs

     total energy              =      -1.83815799 Ry
     estimated scf accuracy    <       0.00000291 Ry

     iteration # 94     ecut=    10.00 Ry     beta= 0.70
     Davidson diagonalization with overlap

---- Real-time Memory Report at c_bands before calling an iterative solver
           128 MiB given to the printing process from OS
             0 MiB allocation reported by mallinfo(arena+hblkhd)
          1164 MiB available memory on the node where the printing process lives
------------------
     ethr =  1.52E-09,  avg # of iterations =  1.0

     negative rho (up, down):  1.594E-01 0.000E+00

     total cpu time spent up to now is       21.6 secs

     total energy              =      -1.83815548 Ry
     estimated scf accuracy    <       0.00000294 Ry

     iteration # 95     ecut=    10.00 Ry     beta= 0.70
     Davidson diagonalization with overlap

---- Real-time Memory Report at c_bands before calling an iterative solver
           128 MiB given to the printing process from OS
             0 MiB allocation reported by mallinfo(arena+hblkhd)
          1164 MiB available memory on the node where the printing process lives
------------------
     ethr =  1.52E-09,  avg # of iterations =  3.0

     negative rho (up, down):  1.594E-01 0.000E+00

     total cpu time spent up to now is       21.8 secs

     total energy              =      -1.83815290 Ry
     estimated scf accuracy    <       0.00000265 Ry

     iteration # 96     ecut=    10.00 Ry     beta= 0.70
     Davidson diagonalization with overlap

---- Real-time Memory Report at c_bands before calling an iterative solver
           128 MiB given to the printing process from OS
             0 MiB allocation reported by mallinfo(arena+hblkhd)
          1164 MiB available memory on the node where the printing process lives
------------------
     ethr =  1.52E-09,  avg # of iterations =  3.0

     negative rho (up, down):  1.593E-01 0.000E+00

     total cpu time spent up to now is       22.0 secs

     total energy              =      -1.83817522 Ry
     estimated scf accuracy    <       0.00000348 Ry

     iteration # 97     ecut=    10.00 Ry     beta= 0.70
     Davidson diagonalization with overlap

---- Real-time Memory Report at c_bands before calling an iterative solver
           128 MiB given to the printing process from OS
             0 MiB allocation reported by mallinfo(arena+hblkhd)
          1164 MiB available memory on the node where the printing process lives
------------------
     ethr =  1.52E-09,  avg # of iterations =  4.0

     negative rho (up, down):  1.593E-01 0.000E+00

     total cpu time spent up to now is       22.3 secs

     total energy              =      -1.83819826 Ry
     estimated scf accuracy    <       0.00000036 Ry

     iteration # 98     ecut=    10.00 Ry     beta= 0.70
     Davidson diagonalization with overlap

---- Real-time Memory Report at c_bands before calling an iterative solver
           128 MiB given to the printing process from OS
             0 MiB allocation reported by mallinfo(arena+hblkhd)
          1164 MiB available memory on the node where the printing process lives
------------------
     ethr =  1.52E-09,  avg # of iterations =  3.0

     negative rho (up, down):  1.593E-01 0.000E+00

     total cpu time spent up to now is       22.5 secs

     total energy              =      -1.83817776 Ry
     estimated scf accuracy    <       0.00000023 Ry

     iteration # 99     ecut=    10.00 Ry     beta= 0.70
     Davidson diagonalization with overlap

---- Real-time Memory Report at c_bands before calling an iterative solver
           128 MiB given to the printing process from OS
             0 MiB allocation reported by mallinfo(arena+hblkhd)
          1164 MiB available memory on the node where the printing process lives
------------------
     ethr =  1.52E-09,  avg # of iterations =  4.0

     negative rho (up, down):  1.594E-01 0.000E+00

     total cpu time spent up to now is       22.7 secs

     total energy              =      -1.83812028 Ry
     estimated scf accuracy    <       0.00000014 Ry

     iteration #100     ecut=    10.00 Ry     beta= 0.70
     Davidson diagonalization with overlap

---- Real-time Memory Report at c_bands before calling an iterative solver
           128 MiB given to the printing process from OS
             0 MiB allocation reported by mallinfo(arena+hblkhd)
          1164 MiB available memory on the node where the printing process lives
------------------
     ethr =  1.52E-09,  avg # of iterations =  4.0

     negative rho (up, down):  1.594E-01 0.000E+00

     total cpu time spent up to now is       23.0 secs

     total energy              =      -1.83814964 Ry
     estimated scf accuracy    <       0.00000147 Ry

     End of self-consistent calculation

     convergence NOT achieved after 100 iterations: stopping

     Writing config to output data dir ./.save/
     Message from routine punch:
     wavefunctions written to file

     init_run     :      0.21s CPU      0.23s WALL (       1 calls)
     electrons    :     22.68s CPU     22.74s WALL (       1 calls)

     Called by init_run:
     wfcinit      :      0.02s CPU      0.02s WALL (       1 calls)
     wfcinit:atom :      0.00s CPU      0.00s WALL (       1 calls)
     wfcinit:wfcr :      0.01s CPU      0.01s WALL (       1 calls)
     potinit      :      0.13s CPU      0.14s WALL (       1 calls)
     hinit0       :      0.01s CPU      0.01s WALL (       1 calls)

     Called by electrons:
     c_bands      :      4.37s CPU      4.39s WALL (     101 calls)
     sum_band     :      2.54s CPU      2.54s WALL (     101 calls)
     v_of_rho     :     12.15s CPU     12.17s WALL (     101 calls)
     v_h          :      0.65s CPU      0.65s WALL (     101 calls)
     v_xc         :     11.50s CPU     11.52s WALL (     101 calls)
     newd         :      0.82s CPU      0.82s WALL (     101 calls)
     mix_rho      :      2.67s CPU      2.68s WALL (     101 calls)

     Called by c_bands:
     init_us_2    :      0.08s CPU      0.08s WALL (     203 calls)
     init_us_2:cp :      0.08s CPU      0.08s WALL (     203 calls)
     cegterg      :      4.32s CPU      4.34s WALL (     101 calls)

     Called by sum_band:
     sum_band:wei :      0.00s CPU      0.00s WALL (     101 calls)
     sum_band:loo :      0.70s CPU      0.71s WALL (     101 calls)
     sum_band:buf :      0.00s CPU      0.00s WALL (     101 calls)
     sum_band:ini :      0.04s CPU      0.04s WALL (     101 calls)
     sum_band:cal :      0.01s CPU      0.01s WALL (     101 calls)
     sum_band:bec :      0.00s CPU      0.00s WALL (     101 calls)
     addusdens    :      0.23s CPU      0.23s WALL (     101 calls)
     addusd:skk   :      0.07s CPU      0.07s WALL (     101 calls)
     addusd:dgemm :      0.05s CPU      0.05s WALL (     101 calls)
     addusd:qvan2 :      0.06s CPU      0.06s WALL (     101 calls)

     Called by *egterg:
     cdiaghg      :      0.01s CPU      0.01s WALL (     418 calls)
     cegterg:over :      0.06s CPU      0.06s WALL (     318 calls)
     cegterg:upda :      0.04s CPU      0.05s WALL (     318 calls)
     cegterg:last :      0.08s CPU      0.09s WALL (     241 calls)
     h_psi        :      4.03s CPU      4.05s WALL (     420 calls)
     s_psi        :      0.02s CPU      0.02s WALL (     420 calls)
     g_psi        :      0.02s CPU      0.02s WALL (     318 calls)

     Called by h_psi:
     h_psi:calbec :      0.03s CPU      0.03s WALL (     420 calls)
     vloc_psi     :      3.96s CPU      3.98s WALL (     420 calls)
     add_vuspsi   :      0.03s CPU      0.03s WALL (     420 calls)

     General routines
     calbec       :      0.04s CPU      0.04s WALL (     521 calls)
     fft          :      5.66s CPU      5.67s WALL (    1112 calls)
     ffts         :      0.52s CPU      0.52s WALL (     101 calls)
     fftw         :      4.16s CPU      4.18s WALL (    1448 calls)
     davcio       :      0.00s CPU      0.01s WALL (      19 calls)


     PWSCF        :     22.92s CPU     22.99s WALL


   This run was terminated on:  22:19: 8  28Feb2022            

=------------------------------------------------------------------------------=
   JOB DONE.
=------------------------------------------------------------------------------=
