
     Program PWSCF v.7.0 starts on 28Feb2022 at  3: 3: 7 

     This program is part of the open-source Quantum ESPRESSO suite
     for quantum simulation of materials; please cite
         "P. Giannozzi et al., J. Phys.:Condens. Matter 21 395502 (2009);
         "P. Giannozzi et al., J. Phys.:Condens. Matter 29 465901 (2017);
         "P. Giannozzi et al., J. Chem. Phys. 152 154105 (2020);
          URL http://www.quantum-espresso.org", 
     in publications or presentations arising from this work. More details at
     http://www.quantum-espresso.org/quote

     Serial version
     557 MiB available memory on the printing compute node when the environment starts

     Waiting for input...
     Reading input from standard input

     Current dimensions of program PWSCF are:
     Max number of different atomic species (ntypx) = 10
     Max number of k-points (npk) =  40000
     Max angular momentum in pseudopotentials (lmaxx) =  4

     File ./.update deleted, as requested

     File ./.bfgs deleted, as requested

    ============================================================
    |  pseudopotential report for atomic species:  1           |
    |        pseudo potential version   7   3   2              |
    ------------------------------------------------------------
    |  hydrogen            PBE                  exchange-corr  |
    |  z =   1.    zv( 1) =   1.    exfact =   5.00000         |
    |  ifpcor =  0           atomic energy =  -0.91772 Ry      |
    |  index    orbital      occupation    energy              |
    |    1        100           1.00       -0.48               |
    |  rinner =  0.5000                                        |
    |    new generation scheme:                                |
    |    nbeta =  1     kkbeta =  271     rcloc =    0.6000    |
    |    ibeta    l     epsilon   rcut                         |
    |      1       0      -0.48   0.80                         |
    ============================================================

     IMPORTANT: XC functional enforced from input :
     Exchange-correlation= BLYP
                           (   1   3   1   3   0   0   0)
     Any further DFT definition will be discarded
     Please, verify this is what you really want


     G-vector sticks info
     --------------------
     sticks:   dense  smooth     PW     G-vecs:    dense   smooth      PW
     Sum        4281    4281   1185               211657   211657   30551

     Using Slab Decomposition



     bravais-lattice index     =            1
     lattice parameter (alat)  =      30.0000  a.u.
     unit-cell volume          =   27000.0000 (a.u.)^3
     number of atoms/cell      =            2
     number of atomic types    =            1
     number of electrons       =         2.00
     number of Kohn-Sham states=            2
     kinetic-energy cutoff     =      15.0000  Ry
     charge density cutoff     =      60.0000  Ry
     scf convergence threshold =      1.0E-08
     mixing beta               =       0.7000
     number of iterations used =            8  plain     mixing
     energy convergence thresh.=      1.0E-04
     force convergence thresh. =      1.0E-03
     Exchange-correlation= BLYP
                           (   1   3   1   3   0   0   0)
     nstep                     =           50


     celldm(1)=  30.000000  celldm(2)=   0.000000  celldm(3)=   0.000000
     celldm(4)=   0.000000  celldm(5)=   0.000000  celldm(6)=   0.000000

     crystal axes: (cart. coord. in units of alat)
               a(1) = (   1.000000   0.000000   0.000000 )  
               a(2) = (   0.000000   1.000000   0.000000 )  
               a(3) = (   0.000000   0.000000   1.000000 )  

     reciprocal axes: (cart. coord. in units 2 pi/alat)
               b(1) = (  1.000000  0.000000  0.000000 )  
               b(2) = (  0.000000  1.000000  0.000000 )  
               b(3) = (  0.000000  0.000000  1.000000 )  


     PseudoPot. # 1 for hy read from file:
     /root/q-e/pseudo/H_US.van
     MD5 check sum: a9a9bfe98ff56cf4de197d71fc46bb44
     Pseudo is Ultrasoft, Zval =  1.0
     Generated by Vanderbilt code, v. 7.3.2
     Using radial grid of  399 points,  1 beta functions with: 
                l(1) =   0
     Q(r) pseudized with  8 coefficients,  rinner =    0.500

     atomic species   valence    mass     pseudopotential
        H              1.00     1.00784     hy( 1.00)

      8 Sym. Ops. (no inversion) found


                                    s                        frac. trans.

      isym =  1     identity                                     

 cryst.   s( 1) = (     1          0          0      )
                  (     0          1          0      )
                  (     0          0          1      )

 cart.    s( 1) = (  1.0000000  0.0000000  0.0000000 )
                  (  0.0000000  1.0000000  0.0000000 )
                  (  0.0000000  0.0000000  1.0000000 )


      isym =  2     180 deg rotation - cart. axis [1,0,0]        

 cryst.   s( 2) = (     1          0          0      )
                  (     0         -1          0      )
                  (     0          0         -1      )

 cart.    s( 2) = (  1.0000000  0.0000000  0.0000000 )
                  (  0.0000000 -1.0000000  0.0000000 )
                  (  0.0000000  0.0000000 -1.0000000 )


      isym =  3      90 deg rotation - cart. axis [-1,0,0]       

 cryst.   s( 3) = (     1          0          0      )
                  (     0          0         -1      )
                  (     0          1          0      )

 cart.    s( 3) = (  1.0000000  0.0000000  0.0000000 )
                  (  0.0000000  0.0000000  1.0000000 )
                  (  0.0000000 -1.0000000  0.0000000 )


      isym =  4      90 deg rotation - cart. axis [1,0,0]        

 cryst.   s( 4) = (     1          0          0      )
                  (     0          0          1      )
                  (     0         -1          0      )

 cart.    s( 4) = (  1.0000000  0.0000000  0.0000000 )
                  (  0.0000000  0.0000000 -1.0000000 )
                  (  0.0000000  1.0000000  0.0000000 )


      isym =  5     inv. 180 deg rotation - cart. axis [0,0,1]   

 cryst.   s( 5) = (     1          0          0      )
                  (     0          1          0      )
                  (     0          0         -1      )

 cart.    s( 5) = (  1.0000000  0.0000000  0.0000000 )
                  (  0.0000000  1.0000000  0.0000000 )
                  (  0.0000000  0.0000000 -1.0000000 )


      isym =  6     inv. 180 deg rotation - cart. axis [0,1,0]   

 cryst.   s( 6) = (     1          0          0      )
                  (     0         -1          0      )
                  (     0          0          1      )

 cart.    s( 6) = (  1.0000000  0.0000000  0.0000000 )
                  (  0.0000000 -1.0000000  0.0000000 )
                  (  0.0000000  0.0000000  1.0000000 )


      isym =  7     inv. 180 deg rotation - cart. axis [0,1,1]   

 cryst.   s( 7) = (     1          0          0      )
                  (     0          0         -1      )
                  (     0         -1          0      )

 cart.    s( 7) = (  1.0000000  0.0000000  0.0000000 )
                  (  0.0000000  0.0000000 -1.0000000 )
                  (  0.0000000 -1.0000000  0.0000000 )


      isym =  8     inv. 180 deg rotation - cart. axis [0,1,-1]  

 cryst.   s( 8) = (     1          0          0      )
                  (     0          0          1      )
                  (     0          1          0      )

 cart.    s( 8) = (  1.0000000  0.0000000  0.0000000 )
                  (  0.0000000  0.0000000  1.0000000 )
                  (  0.0000000  1.0000000  0.0000000 )


     point group C_4v (4mm) 
     there are  5 classes
     the character table:

       E     2C4   C2    2s_v  2s_d 
A_1    1.00  1.00  1.00  1.00  1.00
A_2    1.00  1.00  1.00 -1.00 -1.00
B_1    1.00 -1.00  1.00  1.00 -1.00
B_2    1.00 -1.00  1.00 -1.00  1.00
E      2.00  0.00 -2.00  0.00  0.00

     the symmetry operations in each class and the name of the first element:

     E        1
          identity                                               
     2C4      3    4
           90 deg rotation - cart. axis [-1,0,0]                 
     C2       2
          180 deg rotation - cart. axis [1,0,0]                  
     2s_v     5    6
          inv. 180 deg rotation - cart. axis [0,0,1]             
     2s_d     7    8
          inv. 180 deg rotation - cart. axis [0,1,1]             

   Cartesian axes

     site n.     atom                  positions (alat units)
         1           H   tau(   1) = (   0.0000000   0.0000000   0.0000000  )
         2           H   tau(   2) = (   0.0466132   0.0000000   0.0000000  )

   Crystallographic axes

     site n.     atom                  positions (cryst. coord.)
         1           H   tau(   1) = (  0.0000000  0.0000000  0.0000000  )
         2           H   tau(   2) = (  0.0466132  0.0000000  0.0000000  )

     number of k points=     1
                       cart. coord. in units 2pi/alat
        k(    1) = (  -0.5000000  -0.5000000  -0.5000000), wk =   2.0000000

                       cryst. coord.
        k(    1) = (  -0.5000000  -0.5000000  -0.5000000), wk =   2.0000000

     Dense  grid:   211657 G-vectors     FFT dimensions: (  75,  75,  75)

     Dynamical RAM for                 wfc:       0.81 MB

     Dynamical RAM for     wfc (w. buffer):       0.81 MB

     Dynamical RAM for           str. fact:       3.23 MB

     Dynamical RAM for           local pot:       0.00 MB

     Dynamical RAM for          nlocal pot:       0.81 MB

     Dynamical RAM for                qrad:       0.01 MB

     Dynamical RAM for          rho,v,vnew:      19.34 MB

     Dynamical RAM for               rhoin:       6.45 MB

     Dynamical RAM for            rho*nmix:      51.67 MB

     Dynamical RAM for           G-vectors:      13.73 MB

     Dynamical RAM for          h,s,v(r/c):       0.00 MB

     Dynamical RAM for          <psi|beta>:       0.00 MB

     Dynamical RAM for                 psi:       1.62 MB

     Dynamical RAM for                hpsi:       1.62 MB

     Dynamical RAM for                spsi:       1.62 MB

     Dynamical RAM for      wfcinit/wfcrot:       1.62 MB

     Dynamical RAM for           addusdens:      19.38 MB

     Dynamical RAM for          addusforce:      27.45 MB

     Estimated static dynamical RAM per process >      66.92 MB

     Estimated max dynamical RAM per process >     146.05 MB

     Initial potential from superposition of free atoms

     starting charge       2.0000, renormalised to       2.0000

     negative rho (up, down):  9.666E-02 0.000E+00
     Starting wfcs are    2 randomized atomic wfcs

     total cpu time spent up to now is        0.4 secs

     Self-consistent Calculation

     iteration #  1     ecut=    15.00 Ry     beta= 0.70
     Davidson diagonalization with overlap

---- Real-time Memory Report at c_bands before calling an iterative solver
           125 MiB given to the printing process from OS
             0 MiB allocation reported by mallinfo(arena+hblkhd)
           475 MiB available memory on the node where the printing process lives
------------------
     ethr =  1.00E-02,  avg # of iterations =  5.0

     negative rho (up, down):  1.618E-01 0.000E+00

     total cpu time spent up to now is        0.8 secs

     total energy              =      -2.29806251 Ry
     estimated scf accuracy    <       0.12473872 Ry

     iteration #  2     ecut=    15.00 Ry     beta= 0.70
     Davidson diagonalization with overlap

---- Real-time Memory Report at c_bands before calling an iterative solver
           153 MiB given to the printing process from OS
             0 MiB allocation reported by mallinfo(arena+hblkhd)
           417 MiB available memory on the node where the printing process lives
------------------
     ethr =  6.24E-03,  avg # of iterations =  1.0

     negative rho (up, down):  1.762E-01 0.000E+00

     total cpu time spent up to now is        1.2 secs

     total energy              =      -2.29880527 Ry
     estimated scf accuracy    <       0.00148324 Ry

     iteration #  3     ecut=    15.00 Ry     beta= 0.70
     Davidson diagonalization with overlap

---- Real-time Memory Report at c_bands before calling an iterative solver
           160 MiB given to the printing process from OS
             0 MiB allocation reported by mallinfo(arena+hblkhd)
           410 MiB available memory on the node where the printing process lives
------------------
     ethr =  7.42E-05,  avg # of iterations =  9.0

     negative rho (up, down):  1.766E-01 0.000E+00

     total cpu time spent up to now is        1.7 secs

     total energy              =      -2.29888418 Ry
     estimated scf accuracy    <       0.00001632 Ry

     iteration #  4     ecut=    15.00 Ry     beta= 0.70
     Davidson diagonalization with overlap

---- Real-time Memory Report at c_bands before calling an iterative solver
           166 MiB given to the printing process from OS
             0 MiB allocation reported by mallinfo(arena+hblkhd)
           404 MiB available memory on the node where the printing process lives
------------------
     ethr =  8.16E-07,  avg # of iterations =  5.0

     negative rho (up, down):  1.772E-01 0.000E+00

     total cpu time spent up to now is        2.1 secs

     total energy              =      -2.29861503 Ry
     estimated scf accuracy    <       0.00000046 Ry

     iteration #  5     ecut=    15.00 Ry     beta= 0.70
     Davidson diagonalization with overlap

---- Real-time Memory Report at c_bands before calling an iterative solver
           173 MiB given to the printing process from OS
             0 MiB allocation reported by mallinfo(arena+hblkhd)
           397 MiB available memory on the node where the printing process lives
------------------
     ethr =  2.29E-08,  avg # of iterations =  3.0

     negative rho (up, down):  1.772E-01 0.000E+00

     total cpu time spent up to now is        2.5 secs

     total energy              =      -2.29861629 Ry
     estimated scf accuracy    <       0.00000011 Ry

     iteration #  6     ecut=    15.00 Ry     beta= 0.70
     Davidson diagonalization with overlap

---- Real-time Memory Report at c_bands before calling an iterative solver
           179 MiB given to the printing process from OS
             0 MiB allocation reported by mallinfo(arena+hblkhd)
           391 MiB available memory on the node where the printing process lives
------------------
     ethr =  5.27E-09,  avg # of iterations =  3.0

     negative rho (up, down):  1.772E-01 0.000E+00

     total cpu time spent up to now is        2.8 secs

     End of self-consistent calculation

          k =-0.5000-0.5000-0.5000 ( 26344 PWs)   bands (ev):

   -10.7027  -1.4477

     occupation numbers 
     1.0000   0.0000

     highest occupied, lowest unoccupied level (ev):   -10.7027   -1.4477

!    total energy              =      -2.29859284 Ry
     estimated scf accuracy    <          7.4E-09 Ry

     The total energy is the sum of the following terms:
     one-electron contribution =      -4.22688886 Ry
     hartree contribution      =       2.27171020 Ry
     xc contribution           =      -1.39562086 Ry
     ewald contribution        =       1.05220669 Ry

     convergence has been achieved in   6 iterations

     Forces acting on atoms (cartesian axes, Ry/au):

     atom    1 type  1   force =     0.02796419    0.00000000    0.00000000
     atom    2 type  1   force =    -0.02796419    0.00000000    0.00000000
     The non-local contrib.  to forces
     atom    1 type  1   force =     0.13409847    0.00000000    0.00000000
     atom    2 type  1   force =    -0.13524594    0.00000000    0.00000000
     The ionic contribution  to forces
     atom    1 type  1   force =    -1.02231175   -0.00000000   -0.00000000
     atom    2 type  1   force =     1.02231175   -0.00000000   -0.00000000
     The local contribution  to forces
     atom    1 type  1   force =     0.91577523    0.00000000    0.00000000
     atom    2 type  1   force =    -0.91549575    0.00000000    0.00000000
     The core correction contribution to forces
     atom    1 type  1   force =     0.00000000    0.00000000    0.00000000
     atom    2 type  1   force =     0.00000000    0.00000000    0.00000000
     The Hubbard contrib.    to forces
     atom    1 type  1   force =     0.00000000    0.00000000    0.00000000
     atom    2 type  1   force =     0.00000000    0.00000000    0.00000000
     The SCF correction term to forces
     atom    1 type  1   force =    -0.00007548    0.00000000    0.00000000
     atom    2 type  1   force =    -0.00001197   -0.00000000    0.00000000

     Total force =     0.039547     Total SCF correction =     0.000076

     BFGS Geometry Optimization
     Energy error            =      0.0E+00 Ry
     Gradient error          =      2.8E-02 Ry/Bohr

     number of scf cycles    =   1
     number of bfgs steps    =   0

     energy             new  =      -2.2985928366 Ry

     new trust radius        =       0.0279641911 bohr
     new conv_thr            =       0.0000000100 Ry


ATOMIC_POSITIONS (angstrom)
H             0.0147980127        0.0000000000        0.0000000000
H             0.7252019873        0.0000000000        0.0000000000



     Writing config-only to output data dir ./.save/
     NEW-OLD atomic charge density approx. for the potential

     negative rho (up, down):  1.775E-01 0.000E+00

     total cpu time spent up to now is        3.2 secs

     Self-consistent Calculation

     iteration #  1     ecut=    15.00 Ry     beta= 0.70
     Davidson diagonalization with overlap

---- Real-time Memory Report at c_bands before calling an iterative solver
           182 MiB given to the printing process from OS
             0 MiB allocation reported by mallinfo(arena+hblkhd)
           470 MiB available memory on the node where the printing process lives
------------------
     ethr =  1.00E-06,  avg # of iterations =  6.0

     negative rho (up, down):  1.830E-01 0.000E+00

     total cpu time spent up to now is        3.6 secs

     total energy              =      -2.29587418 Ry
     estimated scf accuracy    <       0.00025600 Ry

     iteration #  2     ecut=    15.00 Ry     beta= 0.70
     Davidson diagonalization with overlap

---- Real-time Memory Report at c_bands before calling an iterative solver
           182 MiB given to the printing process from OS
             0 MiB allocation reported by mallinfo(arena+hblkhd)
           413 MiB available memory on the node where the printing process lives
------------------
     ethr =  1.28E-05,  avg # of iterations =  2.0

     negative rho (up, down):  1.843E-01 0.000E+00

     total cpu time spent up to now is        4.0 secs

     total energy              =      -2.29523791 Ry
     estimated scf accuracy    <       0.00000248 Ry

     iteration #  3     ecut=    15.00 Ry     beta= 0.70
     Davidson diagonalization with overlap

---- Real-time Memory Report at c_bands before calling an iterative solver
           182 MiB given to the printing process from OS
             0 MiB allocation reported by mallinfo(arena+hblkhd)
           407 MiB available memory on the node where the printing process lives
------------------
     ethr =  1.24E-07,  avg # of iterations =  3.0

     negative rho (up, down):  1.846E-01 0.000E+00

     total cpu time spent up to now is        4.4 secs

     total energy              =      -2.29500606 Ry
     estimated scf accuracy    <       0.00000008 Ry

     iteration #  4     ecut=    15.00 Ry     beta= 0.70
     Davidson diagonalization with overlap

---- Real-time Memory Report at c_bands before calling an iterative solver
           182 MiB given to the printing process from OS
             0 MiB allocation reported by mallinfo(arena+hblkhd)
           400 MiB available memory on the node where the printing process lives
------------------
     ethr =  4.17E-09,  avg # of iterations =  4.0

     negative rho (up, down):  1.846E-01 0.000E+00

     total cpu time spent up to now is        4.8 secs

     total energy              =      -2.29504093 Ry
     estimated scf accuracy    <       0.00000024 Ry

     iteration #  5     ecut=    15.00 Ry     beta= 0.70
     Davidson diagonalization with overlap

---- Real-time Memory Report at c_bands before calling an iterative solver
           182 MiB given to the printing process from OS
             0 MiB allocation reported by mallinfo(arena+hblkhd)
           394 MiB available memory on the node where the printing process lives
------------------
     ethr =  4.17E-09,  avg # of iterations =  3.0

     negative rho (up, down):  1.846E-01 0.000E+00

     total cpu time spent up to now is        5.2 secs

     total energy              =      -2.29505000 Ry
     estimated scf accuracy    <       0.00000005 Ry

     iteration #  6     ecut=    15.00 Ry     beta= 0.70
     Davidson diagonalization with overlap

---- Real-time Memory Report at c_bands before calling an iterative solver
           183 MiB given to the printing process from OS
             0 MiB allocation reported by mallinfo(arena+hblkhd)
           387 MiB available memory on the node where the printing process lives
------------------
     ethr =  2.68E-09,  avg # of iterations =  3.0

     negative rho (up, down):  1.846E-01 0.000E+00

     total cpu time spent up to now is        5.6 secs

     total energy              =      -2.29505361 Ry
     estimated scf accuracy    <       0.00000015 Ry

     iteration #  7     ecut=    15.00 Ry     beta= 0.70
     Davidson diagonalization with overlap

---- Real-time Memory Report at c_bands before calling an iterative solver
           190 MiB given to the printing process from OS
             0 MiB allocation reported by mallinfo(arena+hblkhd)
           381 MiB available memory on the node where the printing process lives
------------------
     ethr =  2.68E-09,  avg # of iterations =  3.0

     negative rho (up, down):  1.846E-01 0.000E+00

     total cpu time spent up to now is        6.0 secs

     total energy              =      -2.29505869 Ry
     estimated scf accuracy    <       0.00000020 Ry

     iteration #  8     ecut=    15.00 Ry     beta= 0.70
     Davidson diagonalization with overlap

---- Real-time Memory Report at c_bands before calling an iterative solver
           196 MiB given to the printing process from OS
             0 MiB allocation reported by mallinfo(arena+hblkhd)
           375 MiB available memory on the node where the printing process lives
------------------
     ethr =  2.68E-09,  avg # of iterations =  4.0

     negative rho (up, down):  1.846E-01 0.000E+00

     total cpu time spent up to now is        6.4 secs

     total energy              =      -2.29506843 Ry
     estimated scf accuracy    <       0.00000024 Ry

     iteration #  9     ecut=    15.00 Ry     beta= 0.70
     Davidson diagonalization with overlap

---- Real-time Memory Report at c_bands before calling an iterative solver
           203 MiB given to the printing process from OS
             0 MiB allocation reported by mallinfo(arena+hblkhd)
           368 MiB available memory on the node where the printing process lives
------------------
     ethr =  2.68E-09,  avg # of iterations =  3.0

     negative rho (up, down):  1.846E-01 0.000E+00

     total cpu time spent up to now is        6.8 secs

     total energy              =      -2.29507615 Ry
     estimated scf accuracy    <       0.00000009 Ry

     iteration # 10     ecut=    15.00 Ry     beta= 0.70
     Davidson diagonalization with overlap

---- Real-time Memory Report at c_bands before calling an iterative solver
           209 MiB given to the printing process from OS
             0 MiB allocation reported by mallinfo(arena+hblkhd)
           362 MiB available memory on the node where the printing process lives
------------------
     ethr =  2.68E-09,  avg # of iterations =  3.0

     negative rho (up, down):  1.847E-01 0.000E+00

     total cpu time spent up to now is        7.2 secs

     total energy              =      -2.29502282 Ry
     estimated scf accuracy    <       0.00000026 Ry

     iteration # 11     ecut=    15.00 Ry     beta= 0.70
     Davidson diagonalization with overlap

---- Real-time Memory Report at c_bands before calling an iterative solver
           209 MiB given to the printing process from OS
             0 MiB allocation reported by mallinfo(arena+hblkhd)
           362 MiB available memory on the node where the printing process lives
------------------
     ethr =  2.68E-09,  avg # of iterations =  4.0

     negative rho (up, down):  1.847E-01 0.000E+00

     total cpu time spent up to now is        7.6 secs

     total energy              =      -2.29503687 Ry
     estimated scf accuracy    <       0.00000043 Ry

     iteration # 12     ecut=    15.00 Ry     beta= 0.70
     Davidson diagonalization with overlap

---- Real-time Memory Report at c_bands before calling an iterative solver
           209 MiB given to the printing process from OS
             0 MiB allocation reported by mallinfo(arena+hblkhd)
           362 MiB available memory on the node where the printing process lives
------------------
     ethr =  2.68E-09,  avg # of iterations =  2.0

     negative rho (up, down):  1.846E-01 0.000E+00

     total cpu time spent up to now is        8.0 secs

     total energy              =      -2.29505973 Ry
     estimated scf accuracy    <       0.00000040 Ry

     iteration # 13     ecut=    15.00 Ry     beta= 0.70
     Davidson diagonalization with overlap

---- Real-time Memory Report at c_bands before calling an iterative solver
           209 MiB given to the printing process from OS
             0 MiB allocation reported by mallinfo(arena+hblkhd)
           362 MiB available memory on the node where the printing process lives
------------------
     ethr =  2.68E-09,  avg # of iterations =  4.0

     negative rho (up, down):  1.846E-01 0.000E+00

     total cpu time spent up to now is        8.4 secs

     total energy              =      -2.29507593 Ry
     estimated scf accuracy    <       0.00000005 Ry

     iteration # 14     ecut=    15.00 Ry     beta= 0.70
     Davidson diagonalization with overlap

---- Real-time Memory Report at c_bands before calling an iterative solver
           209 MiB given to the printing process from OS
             0 MiB allocation reported by mallinfo(arena+hblkhd)
           362 MiB available memory on the node where the printing process lives
------------------
     ethr =  2.33E-09,  avg # of iterations =  3.0

     negative rho (up, down):  1.846E-01 0.000E+00

     total cpu time spent up to now is        8.8 secs

     total energy              =      -2.29508444 Ry
     estimated scf accuracy    <       0.00000004 Ry

     iteration # 15     ecut=    15.00 Ry     beta= 0.70
     Davidson diagonalization with overlap

---- Real-time Memory Report at c_bands before calling an iterative solver
           209 MiB given to the printing process from OS
             0 MiB allocation reported by mallinfo(arena+hblkhd)
           362 MiB available memory on the node where the printing process lives
------------------
     ethr =  1.76E-09,  avg # of iterations =  3.0

     negative rho (up, down):  1.846E-01 0.000E+00

     total cpu time spent up to now is        9.2 secs

     total energy              =      -2.29507873 Ry
     estimated scf accuracy    <       0.00000009 Ry

     iteration # 16     ecut=    15.00 Ry     beta= 0.70
     Davidson diagonalization with overlap

---- Real-time Memory Report at c_bands before calling an iterative solver
           209 MiB given to the printing process from OS
             0 MiB allocation reported by mallinfo(arena+hblkhd)
           362 MiB available memory on the node where the printing process lives
------------------
     ethr =  1.76E-09,  avg # of iterations =  2.0

     negative rho (up, down):  1.846E-01 0.000E+00

     total cpu time spent up to now is        9.6 secs

     total energy              =      -2.29507693 Ry
     estimated scf accuracy    <       0.00000008 Ry

     iteration # 17     ecut=    15.00 Ry     beta= 0.70
     Davidson diagonalization with overlap

---- Real-time Memory Report at c_bands before calling an iterative solver
           209 MiB given to the printing process from OS
             0 MiB allocation reported by mallinfo(arena+hblkhd)
           362 MiB available memory on the node where the printing process lives
------------------
     ethr =  1.76E-09,  avg # of iterations =  2.0

     negative rho (up, down):  1.846E-01 0.000E+00

     total cpu time spent up to now is       10.0 secs

     total energy              =      -2.29506346 Ry
     estimated scf accuracy    <       0.00000005 Ry

     iteration # 18     ecut=    15.00 Ry     beta= 0.70
     Davidson diagonalization with overlap

---- Real-time Memory Report at c_bands before calling an iterative solver
           209 MiB given to the printing process from OS
             0 MiB allocation reported by mallinfo(arena+hblkhd)
           362 MiB available memory on the node where the printing process lives
------------------
     ethr =  1.76E-09,  avg # of iterations =  3.0

     negative rho (up, down):  1.846E-01 0.000E+00

     total cpu time spent up to now is       10.4 secs

     total energy              =      -2.29506674 Ry
     estimated scf accuracy    <       0.00000005 Ry

     iteration # 19     ecut=    15.00 Ry     beta= 0.70
     Davidson diagonalization with overlap

---- Real-time Memory Report at c_bands before calling an iterative solver
           209 MiB given to the printing process from OS
             0 MiB allocation reported by mallinfo(arena+hblkhd)
           362 MiB available memory on the node where the printing process lives
------------------
     ethr =  1.76E-09,  avg # of iterations =  2.0

     negative rho (up, down):  1.846E-01 0.000E+00

     total cpu time spent up to now is       10.8 secs

     total energy              =      -2.29507881 Ry
     estimated scf accuracy    <       0.00000005 Ry

     iteration # 20     ecut=    15.00 Ry     beta= 0.70
     Davidson diagonalization with overlap

---- Real-time Memory Report at c_bands before calling an iterative solver
           209 MiB given to the printing process from OS
             0 MiB allocation reported by mallinfo(arena+hblkhd)
           362 MiB available memory on the node where the printing process lives
------------------
     ethr =  1.76E-09,  avg # of iterations =  3.0

     negative rho (up, down):  1.846E-01 0.000E+00

     total cpu time spent up to now is       11.2 secs

     total energy              =      -2.29505921 Ry
     estimated scf accuracy    <       0.00000004 Ry

     iteration # 21     ecut=    15.00 Ry     beta= 0.70
     Davidson diagonalization with overlap

---- Real-time Memory Report at c_bands before calling an iterative solver
           209 MiB given to the printing process from OS
             0 MiB allocation reported by mallinfo(arena+hblkhd)
           362 MiB available memory on the node where the printing process lives
------------------
     ethr =  1.76E-09,  avg # of iterations =  3.0

     negative rho (up, down):  1.846E-01 0.000E+00

     total cpu time spent up to now is       11.6 secs

     total energy              =      -2.29506021 Ry
     estimated scf accuracy    <       0.00000002 Ry

     iteration # 22     ecut=    15.00 Ry     beta= 0.70
     Davidson diagonalization with overlap

---- Real-time Memory Report at c_bands before calling an iterative solver
           209 MiB given to the printing process from OS
             0 MiB allocation reported by mallinfo(arena+hblkhd)
           362 MiB available memory on the node where the printing process lives
------------------
     ethr =  8.07E-10,  avg # of iterations =  2.0

     negative rho (up, down):  1.846E-01 0.000E+00

     total cpu time spent up to now is       12.0 secs

     total energy              =      -2.29505912 Ry
     estimated scf accuracy    <       0.00000002 Ry

     iteration # 23     ecut=    15.00 Ry     beta= 0.70
     Davidson diagonalization with overlap

---- Real-time Memory Report at c_bands before calling an iterative solver
           209 MiB given to the printing process from OS
             0 MiB allocation reported by mallinfo(arena+hblkhd)
           362 MiB available memory on the node where the printing process lives
------------------
     ethr =  8.07E-10,  avg # of iterations =  2.0

     negative rho (up, down):  1.847E-01 0.000E+00

     total cpu time spent up to now is       12.3 secs

     total energy              =      -2.29504699 Ry
     estimated scf accuracy    <       0.00000002 Ry

     iteration # 24     ecut=    15.00 Ry     beta= 0.70
     Davidson diagonalization with overlap

---- Real-time Memory Report at c_bands before calling an iterative solver
           209 MiB given to the printing process from OS
             0 MiB allocation reported by mallinfo(arena+hblkhd)
           362 MiB available memory on the node where the printing process lives
------------------
     ethr =  7.89E-10,  avg # of iterations =  3.0

     negative rho (up, down):  1.847E-01 0.000E+00

     total cpu time spent up to now is       12.7 secs

     total energy              =      -2.29504494 Ry
     estimated scf accuracy    <       0.00000001 Ry

     iteration # 25     ecut=    15.00 Ry     beta= 0.70
     Davidson diagonalization with overlap

---- Real-time Memory Report at c_bands before calling an iterative solver
           209 MiB given to the printing process from OS
             0 MiB allocation reported by mallinfo(arena+hblkhd)
           362 MiB available memory on the node where the printing process lives
------------------
     ethr =  6.32E-10,  avg # of iterations =  3.0

     negative rho (up, down):  1.847E-01 0.000E+00

     total cpu time spent up to now is       13.1 secs

     total energy              =      -2.29505375 Ry
     estimated scf accuracy    <       0.00000002 Ry

     iteration # 26     ecut=    15.00 Ry     beta= 0.70
     Davidson diagonalization with overlap

---- Real-time Memory Report at c_bands before calling an iterative solver
           209 MiB given to the printing process from OS
             0 MiB allocation reported by mallinfo(arena+hblkhd)
           362 MiB available memory on the node where the printing process lives
------------------
     ethr =  6.32E-10,  avg # of iterations =  4.0

     negative rho (up, down):  1.846E-01 0.000E+00

     total cpu time spent up to now is       13.5 secs

     End of self-consistent calculation

          k =-0.5000-0.5000-0.5000 ( 26344 PWs)   bands (ev):

   -10.8690  -1.4464

     occupation numbers 
     1.0000   0.0000

     highest occupied, lowest unoccupied level (ev):   -10.8690   -1.4464

!    total energy              =      -2.29508196 Ry
     estimated scf accuracy    <          9.3E-09 Ry

     The total energy is the sum of the following terms:
     one-electron contribution =      -4.30471566 Ry
     hartree contribution      =       2.31254382 Ry
     xc contribution           =      -1.41467656 Ry
     ewald contribution        =       1.11176645 Ry

     convergence has been achieved in  26 iterations

     Forces acting on atoms (cartesian axes, Ry/au):

     atom    1 type  1   force =     0.00133543    0.00000000    0.00000000
     atom    2 type  1   force =    -0.00133543    0.00000000    0.00000000
     The non-local contrib.  to forces
     atom    1 type  1   force =     0.16549635    0.00000000    0.00000000
     atom    2 type  1   force =    -0.16686435    0.00000000    0.00000000
     The ionic contribution  to forces
     atom    1 type  1   force =    -1.10932162   -0.00000000   -0.00000000
     atom    2 type  1   force =     1.10932162    0.00000000   -0.00000000
     The local contribution  to forces
     atom    1 type  1   force =     0.94463143    0.00000000    0.00000000
     atom    2 type  1   force =    -0.94439546    0.00000000    0.00000000
     The core correction contribution to forces
     atom    1 type  1   force =     0.00000000    0.00000000    0.00000000
     atom    2 type  1   force =     0.00000000    0.00000000    0.00000000
     The Hubbard contrib.    to forces
     atom    1 type  1   force =     0.00000000    0.00000000    0.00000000
     atom    2 type  1   force =     0.00000000    0.00000000    0.00000000
     The SCF correction term to forces
     atom    1 type  1   force =     0.00013462    0.00000000    0.00000000
     atom    2 type  1   force =     0.00020810    0.00000000    0.00000000

     Total force =     0.001889     Total SCF correction =     0.000248
     SCF correction compared to forces is large: reduce conv_thr to get better values
     Energy error            =      3.5E-03 Ry
     Gradient error          =      1.3E-03 Ry/Bohr

     number of scf cycles    =   2
     number of bfgs steps    =   1

     energy             old  =      -2.2985928366 Ry
     energy             new  =      -2.2950819551 Ry

     CASE: energy            _new > energy            _old

     new trust radius        =       0.0043090503 bohr
     new conv_thr            =       0.0000000100 Ry


ATOMIC_POSITIONS (angstrom)
H             0.0022802512        0.0000000000        0.0000000000
H             0.7377197488        0.0000000000        0.0000000000



     Writing config-only to output data dir ./.save/
     NEW-OLD atomic charge density approx. for the potential

     negative rho (up, down):  1.835E-01 0.000E+00

     total cpu time spent up to now is       13.9 secs

     Self-consistent Calculation

     iteration #  1     ecut=    15.00 Ry     beta= 0.70
     Davidson diagonalization with overlap

---- Real-time Memory Report at c_bands before calling an iterative solver
           209 MiB given to the printing process from OS
             0 MiB allocation reported by mallinfo(arena+hblkhd)
           470 MiB available memory on the node where the printing process lives
------------------
     ethr =  1.00E-06,  avg # of iterations =  4.0

     negative rho (up, down):  1.791E-01 0.000E+00

     total cpu time spent up to now is       14.3 secs

     total energy              =      -2.29755257 Ry
     estimated scf accuracy    <       0.00019312 Ry

     iteration #  2     ecut=    15.00 Ry     beta= 0.70
     Davidson diagonalization with overlap

---- Real-time Memory Report at c_bands before calling an iterative solver
           209 MiB given to the printing process from OS
             0 MiB allocation reported by mallinfo(arena+hblkhd)
           413 MiB available memory on the node where the printing process lives
------------------
     ethr =  9.66E-06,  avg # of iterations =  2.0

     negative rho (up, down):  1.783E-01 0.000E+00

     total cpu time spent up to now is       14.7 secs

     total energy              =      -2.29802799 Ry
     estimated scf accuracy    <       0.00000157 Ry

     iteration #  3     ecut=    15.00 Ry     beta= 0.70
     Davidson diagonalization with overlap

---- Real-time Memory Report at c_bands before calling an iterative solver
           209 MiB given to the printing process from OS
             0 MiB allocation reported by mallinfo(arena+hblkhd)
           406 MiB available memory on the node where the printing process lives
------------------
     ethr =  7.84E-08,  avg # of iterations =  5.0

     negative rho (up, down):  1.781E-01 0.000E+00

     total cpu time spent up to now is       15.1 secs

     total energy              =      -2.29822207 Ry
     estimated scf accuracy    <       0.00000012 Ry

     iteration #  4     ecut=    15.00 Ry     beta= 0.70
     Davidson diagonalization with overlap

---- Real-time Memory Report at c_bands before calling an iterative solver
           209 MiB given to the printing process from OS
             0 MiB allocation reported by mallinfo(arena+hblkhd)
           400 MiB available memory on the node where the printing process lives
------------------
     ethr =  6.03E-09,  avg # of iterations =  3.0

     negative rho (up, down):  1.781E-01 0.000E+00

     total cpu time spent up to now is       15.5 secs

     total energy              =      -2.29824172 Ry
     estimated scf accuracy    <       0.00000004 Ry

     iteration #  5     ecut=    15.00 Ry     beta= 0.70
     Davidson diagonalization with overlap

---- Real-time Memory Report at c_bands before calling an iterative solver
           209 MiB given to the printing process from OS
             0 MiB allocation reported by mallinfo(arena+hblkhd)
           393 MiB available memory on the node where the printing process lives
------------------
     ethr =  1.94E-09,  avg # of iterations =  4.0

     negative rho (up, down):  1.781E-01 0.000E+00

     total cpu time spent up to now is       15.9 secs

     total energy              =      -2.29825949 Ry
     estimated scf accuracy    <       0.00000003 Ry

     iteration #  6     ecut=    15.00 Ry     beta= 0.70
     Davidson diagonalization with overlap

---- Real-time Memory Report at c_bands before calling an iterative solver
           209 MiB given to the printing process from OS
             0 MiB allocation reported by mallinfo(arena+hblkhd)
           387 MiB available memory on the node where the printing process lives
------------------
     ethr =  1.37E-09,  avg # of iterations =  3.0

     negative rho (up, down):  1.781E-01 0.000E+00

     total cpu time spent up to now is       16.3 secs

     total energy              =      -2.29824498 Ry
     estimated scf accuracy    <       0.00000003 Ry

     iteration #  7     ecut=    15.00 Ry     beta= 0.70
     Davidson diagonalization with overlap

---- Real-time Memory Report at c_bands before calling an iterative solver
           209 MiB given to the printing process from OS
             0 MiB allocation reported by mallinfo(arena+hblkhd)
           380 MiB available memory on the node where the printing process lives
------------------
     ethr =  1.29E-09,  avg # of iterations =  4.0

     negative rho (up, down):  1.781E-01 0.000E+00

     total cpu time spent up to now is       16.7 secs

     total energy              =      -2.29825090 Ry
     estimated scf accuracy    <       0.00000002 Ry

     iteration #  8     ecut=    15.00 Ry     beta= 0.70
     Davidson diagonalization with overlap

---- Real-time Memory Report at c_bands before calling an iterative solver
           209 MiB given to the printing process from OS
             0 MiB allocation reported by mallinfo(arena+hblkhd)
           374 MiB available memory on the node where the printing process lives
------------------
     ethr =  1.16E-09,  avg # of iterations =  2.0

     negative rho (up, down):  1.781E-01 0.000E+00

     total cpu time spent up to now is       17.1 secs

     total energy              =      -2.29824947 Ry
     estimated scf accuracy    <       0.00000002 Ry

     iteration #  9     ecut=    15.00 Ry     beta= 0.70
     Davidson diagonalization with overlap

---- Real-time Memory Report at c_bands before calling an iterative solver
           209 MiB given to the printing process from OS
             0 MiB allocation reported by mallinfo(arena+hblkhd)
           367 MiB available memory on the node where the printing process lives
------------------
     ethr =  8.07E-10,  avg # of iterations =  2.0

     negative rho (up, down):  1.781E-01 0.000E+00

     total cpu time spent up to now is       17.5 secs

     total energy              =      -2.29824811 Ry
     estimated scf accuracy    <       0.00000002 Ry

     iteration # 10     ecut=    15.00 Ry     beta= 0.70
     Davidson diagonalization with overlap

---- Real-time Memory Report at c_bands before calling an iterative solver
           209 MiB given to the printing process from OS
             0 MiB allocation reported by mallinfo(arena+hblkhd)
           361 MiB available memory on the node where the printing process lives
------------------
     ethr =  7.71E-10,  avg # of iterations =  3.0

     negative rho (up, down):  1.782E-01 0.000E+00

     total cpu time spent up to now is       17.9 secs

     total energy              =      -2.29821552 Ry
     estimated scf accuracy    <       0.00000001 Ry

     iteration # 11     ecut=    15.00 Ry     beta= 0.70
     Davidson diagonalization with overlap

---- Real-time Memory Report at c_bands before calling an iterative solver
           209 MiB given to the printing process from OS
             0 MiB allocation reported by mallinfo(arena+hblkhd)
           361 MiB available memory on the node where the printing process lives
------------------
     ethr =  5.48E-10,  avg # of iterations =  4.0

     negative rho (up, down):  1.781E-01 0.000E+00

     total cpu time spent up to now is       18.3 secs

     total energy              =      -2.29823454 Ry
     estimated scf accuracy    <       0.00000017 Ry

     iteration # 12     ecut=    15.00 Ry     beta= 0.70
     Davidson diagonalization with overlap

---- Real-time Memory Report at c_bands before calling an iterative solver
           209 MiB given to the printing process from OS
             0 MiB allocation reported by mallinfo(arena+hblkhd)
           361 MiB available memory on the node where the printing process lives
------------------
     ethr =  5.48E-10,  avg # of iterations =  3.0

     negative rho (up, down):  1.781E-01 0.000E+00

     total cpu time spent up to now is       18.7 secs

     total energy              =      -2.29827072 Ry
     estimated scf accuracy    <       0.00000007 Ry

     iteration # 13     ecut=    15.00 Ry     beta= 0.70
     Davidson diagonalization with overlap

---- Real-time Memory Report at c_bands before calling an iterative solver
           209 MiB given to the printing process from OS
             0 MiB allocation reported by mallinfo(arena+hblkhd)
           361 MiB available memory on the node where the printing process lives
------------------
     ethr =  5.48E-10,  avg # of iterations =  4.0

     negative rho (up, down):  1.781E-01 0.000E+00

     total cpu time spent up to now is       19.1 secs

     total energy              =      -2.29828525 Ry
     estimated scf accuracy    <       0.00000002 Ry

     iteration # 14     ecut=    15.00 Ry     beta= 0.70
     Davidson diagonalization with overlap

---- Real-time Memory Report at c_bands before calling an iterative solver
           209 MiB given to the printing process from OS
             0 MiB allocation reported by mallinfo(arena+hblkhd)
           361 MiB available memory on the node where the printing process lives
------------------
     ethr =  5.48E-10,  avg # of iterations =  4.0

     negative rho (up, down):  1.781E-01 0.000E+00

     total cpu time spent up to now is       19.5 secs

     total energy              =      -2.29826655 Ry
     estimated scf accuracy    <       0.00000011 Ry

     iteration # 15     ecut=    15.00 Ry     beta= 0.70
     Davidson diagonalization with overlap

---- Real-time Memory Report at c_bands before calling an iterative solver
           209 MiB given to the printing process from OS
             0 MiB allocation reported by mallinfo(arena+hblkhd)
           361 MiB available memory on the node where the printing process lives
------------------
     ethr =  5.48E-10,  avg # of iterations =  4.0

     negative rho (up, down):  1.781E-01 0.000E+00

     total cpu time spent up to now is       19.9 secs

     total energy              =      -2.29826868 Ry
     estimated scf accuracy    <       0.00000002 Ry

     iteration # 16     ecut=    15.00 Ry     beta= 0.70
     Davidson diagonalization with overlap

---- Real-time Memory Report at c_bands before calling an iterative solver
           209 MiB given to the printing process from OS
             0 MiB allocation reported by mallinfo(arena+hblkhd)
           361 MiB available memory on the node where the printing process lives
------------------
     ethr =  5.48E-10,  avg # of iterations =  2.0

     negative rho (up, down):  1.781E-01 0.000E+00

     total cpu time spent up to now is       20.3 secs

     total energy              =      -2.29826928 Ry
     estimated scf accuracy    <       0.00000002 Ry

     iteration # 17     ecut=    15.00 Ry     beta= 0.70
     Davidson diagonalization with overlap

---- Real-time Memory Report at c_bands before calling an iterative solver
           209 MiB given to the printing process from OS
             0 MiB allocation reported by mallinfo(arena+hblkhd)
           361 MiB available memory on the node where the printing process lives
------------------
     ethr =  5.48E-10,  avg # of iterations =  2.0

     negative rho (up, down):  1.781E-01 0.000E+00

     total cpu time spent up to now is       20.7 secs

     total energy              =      -2.29827093 Ry
     estimated scf accuracy    <       0.00000002 Ry

     iteration # 18     ecut=    15.00 Ry     beta= 0.70
     Davidson diagonalization with overlap

---- Real-time Memory Report at c_bands before calling an iterative solver
           209 MiB given to the printing process from OS
             0 MiB allocation reported by mallinfo(arena+hblkhd)
           361 MiB available memory on the node where the printing process lives
------------------
     ethr =  5.48E-10,  avg # of iterations =  4.0

     negative rho (up, down):  1.781E-01 0.000E+00

     total cpu time spent up to now is       21.1 secs

     total energy              =      -2.29826117 Ry
     estimated scf accuracy    <       0.00000004 Ry

     iteration # 19     ecut=    15.00 Ry     beta= 0.70
     Davidson diagonalization with overlap

---- Real-time Memory Report at c_bands before calling an iterative solver
           209 MiB given to the printing process from OS
             0 MiB allocation reported by mallinfo(arena+hblkhd)
           361 MiB available memory on the node where the printing process lives
------------------
     ethr =  5.48E-10,  avg # of iterations =  3.0

     negative rho (up, down):  1.781E-01 0.000E+00

     total cpu time spent up to now is       21.5 secs

     total energy              =      -2.29824401 Ry
     estimated scf accuracy    <       0.00000002 Ry

     iteration # 20     ecut=    15.00 Ry     beta= 0.70
     Davidson diagonalization with overlap

---- Real-time Memory Report at c_bands before calling an iterative solver
           209 MiB given to the printing process from OS
             0 MiB allocation reported by mallinfo(arena+hblkhd)
           361 MiB available memory on the node where the printing process lives
------------------
     ethr =  5.48E-10,  avg # of iterations =  4.0

     negative rho (up, down):  1.781E-01 0.000E+00

     total cpu time spent up to now is       21.9 secs

     total energy              =      -2.29825950 Ry
     estimated scf accuracy    <       0.00000002 Ry

     iteration # 21     ecut=    15.00 Ry     beta= 0.70
     Davidson diagonalization with overlap

---- Real-time Memory Report at c_bands before calling an iterative solver
           209 MiB given to the printing process from OS
             0 MiB allocation reported by mallinfo(arena+hblkhd)
           361 MiB available memory on the node where the printing process lives
------------------
     ethr =  5.48E-10,  avg # of iterations =  4.0

     negative rho (up, down):  1.781E-01 0.000E+00

     total cpu time spent up to now is       22.3 secs

     total energy              =      -2.29828847 Ry
     estimated scf accuracy    <       0.00000002 Ry

     iteration # 22     ecut=    15.00 Ry     beta= 0.70
     Davidson diagonalization with overlap

---- Real-time Memory Report at c_bands before calling an iterative solver
           209 MiB given to the printing process from OS
             0 MiB allocation reported by mallinfo(arena+hblkhd)
           361 MiB available memory on the node where the printing process lives
------------------
     ethr =  5.48E-10,  avg # of iterations =  4.0

     negative rho (up, down):  1.781E-01 0.000E+00

     total cpu time spent up to now is       22.7 secs

     End of self-consistent calculation

          k =-0.5000-0.5000-0.5000 ( 26344 PWs)   bands (ev):

   -10.7311  -1.4564

     occupation numbers 
     1.0000   0.0000

     highest occupied, lowest unoccupied level (ev):   -10.7311   -1.4564

!    total energy              =      -2.29828500 Ry
     estimated scf accuracy    <          3.1E-09 Ry

     The total energy is the sum of the following terms:
     one-electron contribution =      -4.23839324 Ry
     hartree contribution      =       2.27728173 Ry
     xc contribution           =      -1.39824524 Ry
     ewald contribution        =       1.06107174 Ry

     convergence has been achieved in  22 iterations

     Forces acting on atoms (cartesian axes, Ry/au):

     atom    1 type  1   force =     0.02359428    0.00000000    0.00000000
     atom    2 type  1   force =    -0.02359428    0.00000000    0.00000000
     The non-local contrib.  to forces
     atom    1 type  1   force =     0.13762506    0.00000000    0.00000000
     atom    2 type  1   force =    -0.13945019    0.00000000    0.00000000
     The ionic contribution  to forces
     atom    1 type  1   force =    -1.03503805   -0.00000000   -0.00000000
     atom    2 type  1   force =     1.03503805    0.00000000   -0.00000000
     The local contribution  to forces
     atom    1 type  1   force =     0.92014019    0.00000000    0.00000000
     atom    2 type  1   force =    -0.91978421    0.00000000    0.00000000
     The core correction contribution to forces
     atom    1 type  1   force =     0.00000000    0.00000000    0.00000000
     atom    2 type  1   force =     0.00000000    0.00000000    0.00000000
     The Hubbard contrib.    to forces
     atom    1 type  1   force =     0.00000000    0.00000000    0.00000000
     atom    2 type  1   force =     0.00000000    0.00000000    0.00000000
     The SCF correction term to forces
     atom    1 type  1   force =    -0.00017572    0.00000000   -0.00000000
     atom    2 type  1   force =    -0.00044072   -0.00000000    0.00000000

     Total force =     0.033367     Total SCF correction =     0.000474
     Energy error            =      3.1E-04 Ry
     Gradient error          =      2.4E-02 Ry/Bohr

     number of scf cycles    =   3
     number of bfgs steps    =   1

     energy             old  =      -2.2985928366 Ry
     energy             new  =      -2.2982850033 Ry

     CASE: energy            _new > energy            _old

     new trust radius        =       0.0009460767 bohr
     new conv_thr            =       0.0000000100 Ry


ATOMIC_POSITIONS (angstrom)
H             0.0005006422        0.0000000000        0.0000000000
H             0.7394993578        0.0000000000        0.0000000000



     Writing config-only to output data dir ./.save/
     NEW-OLD atomic charge density approx. for the potential

     negative rho (up, down):  1.780E-01 0.000E+00

     total cpu time spent up to now is       23.1 secs

     Self-consistent Calculation

     iteration #  1     ecut=    15.00 Ry     beta= 0.70
     Davidson diagonalization with overlap

---- Real-time Memory Report at c_bands before calling an iterative solver
           209 MiB given to the printing process from OS
             0 MiB allocation reported by mallinfo(arena+hblkhd)
           470 MiB available memory on the node where the printing process lives
------------------
     ethr =  1.00E-06,  avg # of iterations =  2.0

     negative rho (up, down):  1.775E-01 0.000E+00

     total cpu time spent up to now is       23.5 secs

     total energy              =      -2.29843107 Ry
     estimated scf accuracy    <       0.00000277 Ry

     iteration #  2     ecut=    15.00 Ry     beta= 0.70
     Davidson diagonalization with overlap

---- Real-time Memory Report at c_bands before calling an iterative solver
           209 MiB given to the printing process from OS
             0 MiB allocation reported by mallinfo(arena+hblkhd)
           412 MiB available memory on the node where the printing process lives
------------------
     ethr =  1.38E-07,  avg # of iterations =  2.0

     negative rho (up, down):  1.774E-01 0.000E+00

     total cpu time spent up to now is       23.9 secs

     total energy              =      -2.29845654 Ry
     estimated scf accuracy    <       0.00000007 Ry

     iteration #  3     ecut=    15.00 Ry     beta= 0.70
     Davidson diagonalization with overlap

---- Real-time Memory Report at c_bands before calling an iterative solver
           209 MiB given to the printing process from OS
             0 MiB allocation reported by mallinfo(arena+hblkhd)
           406 MiB available memory on the node where the printing process lives
------------------
     ethr =  3.35E-09,  avg # of iterations =  4.0

     negative rho (up, down):  1.773E-01 0.000E+00

     total cpu time spent up to now is       24.3 secs

     total energy              =      -2.29852373 Ry
     estimated scf accuracy    <       0.00000016 Ry

     iteration #  4     ecut=    15.00 Ry     beta= 0.70
     Davidson diagonalization with overlap

---- Real-time Memory Report at c_bands before calling an iterative solver
           209 MiB given to the printing process from OS
             0 MiB allocation reported by mallinfo(arena+hblkhd)
           400 MiB available memory on the node where the printing process lives
------------------
     ethr =  3.35E-09,  avg # of iterations =  4.0

     negative rho (up, down):  1.773E-01 0.000E+00

     total cpu time spent up to now is       24.7 secs

     total energy              =      -2.29853042 Ry
     estimated scf accuracy    <       0.00000010 Ry

     iteration #  5     ecut=    15.00 Ry     beta= 0.70
     Davidson diagonalization with overlap

---- Real-time Memory Report at c_bands before calling an iterative solver
           209 MiB given to the printing process from OS
             0 MiB allocation reported by mallinfo(arena+hblkhd)
           393 MiB available memory on the node where the printing process lives
------------------
     ethr =  3.35E-09,  avg # of iterations =  4.0

     negative rho (up, down):  1.774E-01 0.000E+00

     total cpu time spent up to now is       25.1 secs

     total energy              =      -2.29852701 Ry
     estimated scf accuracy    <       0.00000016 Ry

     iteration #  6     ecut=    15.00 Ry     beta= 0.70
     Davidson diagonalization with overlap

---- Real-time Memory Report at c_bands before calling an iterative solver
           209 MiB given to the printing process from OS
             0 MiB allocation reported by mallinfo(arena+hblkhd)
           387 MiB available memory on the node where the printing process lives
------------------
     ethr =  3.35E-09,  avg # of iterations =  3.0

     negative rho (up, down):  1.774E-01 0.000E+00

     total cpu time spent up to now is       25.5 secs

     total energy              =      -2.29849316 Ry
     estimated scf accuracy    <       0.00000002 Ry

     iteration #  7     ecut=    15.00 Ry     beta= 0.70
     Davidson diagonalization with overlap

---- Real-time Memory Report at c_bands before calling an iterative solver
           209 MiB given to the printing process from OS
             0 MiB allocation reported by mallinfo(arena+hblkhd)
           380 MiB available memory on the node where the printing process lives
------------------
     ethr =  8.86E-10,  avg # of iterations =  4.0

     negative rho (up, down):  1.774E-01 0.000E+00

     total cpu time spent up to now is       25.9 secs

     total energy              =      -2.29850668 Ry
     estimated scf accuracy    <       0.00000011 Ry

     iteration #  8     ecut=    15.00 Ry     beta= 0.70
     Davidson diagonalization with overlap

---- Real-time Memory Report at c_bands before calling an iterative solver
           209 MiB given to the printing process from OS
             0 MiB allocation reported by mallinfo(arena+hblkhd)
           374 MiB available memory on the node where the printing process lives
------------------
     ethr =  8.86E-10,  avg # of iterations =  4.0

     negative rho (up, down):  1.774E-01 0.000E+00

     total cpu time spent up to now is       26.4 secs

     total energy              =      -2.29853006 Ry
     estimated scf accuracy    <       0.00000013 Ry

     iteration #  9     ecut=    15.00 Ry     beta= 0.70
     Davidson diagonalization with overlap

---- Real-time Memory Report at c_bands before calling an iterative solver
           209 MiB given to the printing process from OS
             0 MiB allocation reported by mallinfo(arena+hblkhd)
           367 MiB available memory on the node where the printing process lives
------------------
     ethr =  8.86E-10,  avg # of iterations =  4.0

     negative rho (up, down):  1.774E-01 0.000E+00

     total cpu time spent up to now is       26.8 secs

     total energy              =      -2.29851094 Ry
     estimated scf accuracy    <       0.00000001 Ry

     iteration # 10     ecut=    15.00 Ry     beta= 0.70
     Davidson diagonalization with overlap

---- Real-time Memory Report at c_bands before calling an iterative solver
           209 MiB given to the printing process from OS
             0 MiB allocation reported by mallinfo(arena+hblkhd)
           361 MiB available memory on the node where the printing process lives
------------------
     ethr =  5.82E-10,  avg # of iterations =  4.0

     negative rho (up, down):  1.774E-01 0.000E+00

     total cpu time spent up to now is       27.2 secs

     total energy              =      -2.29850035 Ry
     estimated scf accuracy    <       0.00000008 Ry

     iteration # 11     ecut=    15.00 Ry     beta= 0.70
     Davidson diagonalization with overlap

---- Real-time Memory Report at c_bands before calling an iterative solver
           209 MiB given to the printing process from OS
             0 MiB allocation reported by mallinfo(arena+hblkhd)
           361 MiB available memory on the node where the printing process lives
------------------
     ethr =  5.82E-10,  avg # of iterations =  4.0

     negative rho (up, down):  1.774E-01 0.000E+00

     total cpu time spent up to now is       27.6 secs

     total energy              =      -2.29853368 Ry
     estimated scf accuracy    <       0.00000002 Ry

     iteration # 12     ecut=    15.00 Ry     beta= 0.70
     Davidson diagonalization with overlap

---- Real-time Memory Report at c_bands before calling an iterative solver
           209 MiB given to the printing process from OS
             0 MiB allocation reported by mallinfo(arena+hblkhd)
           361 MiB available memory on the node where the printing process lives
------------------
     ethr =  5.82E-10,  avg # of iterations =  3.0

     negative rho (up, down):  1.774E-01 0.000E+00

     total cpu time spent up to now is       28.0 secs

     End of self-consistent calculation

          k =-0.5000-0.5000-0.5000 ( 26344 PWs)   bands (ev):

   -10.7091  -1.4492

     occupation numbers 
     1.0000   0.0000

     highest occupied, lowest unoccupied level (ev):   -10.7091   -1.4492

!    total energy              =      -2.29847913 Ry
     estimated scf accuracy    <          8.2E-09 Ry

     The total energy is the sum of the following terms:
     one-electron contribution =      -4.22940517 Ry
     hartree contribution      =       2.27292952 Ry
     xc contribution           =      -1.39614716 Ry
     ewald contribution        =       1.05414368 Ry

     convergence has been achieved in  12 iterations

     Forces acting on atoms (cartesian axes, Ry/au):

     atom    1 type  1   force =     0.02535722    0.00000000    0.00000000
     atom    2 type  1   force =    -0.02535722    0.00000000    0.00000000
     The non-local contrib.  to forces
     atom    1 type  1   force =     0.13416153    0.00000000    0.00000000
     atom    2 type  1   force =    -0.13499042    0.00000000    0.00000000
     The ionic contribution  to forces
     atom    1 type  1   force =    -1.02508571    0.00000000   -0.00000000
     atom    2 type  1   force =     1.02508571    0.00000000   -0.00000000
     The local contribution  to forces
     atom    1 type  1   force =     0.91663958    0.00000000    0.00000000
     atom    2 type  1   force =    -0.91655073    0.00000000    0.00000000
     The core correction contribution to forces
     atom    1 type  1   force =     0.00000000    0.00000000    0.00000000
     atom    2 type  1   force =     0.00000000    0.00000000    0.00000000
     The Hubbard contrib.    to forces
     atom    1 type  1   force =     0.00000000    0.00000000    0.00000000
     atom    2 type  1   force =     0.00000000    0.00000000    0.00000000
     The SCF correction term to forces
     atom    1 type  1   force =    -0.00121821   -0.00000000   -0.00000000
     atom    2 type  1   force =     0.00023818    0.00000000    0.00000000

     Total force =     0.035861     Total SCF correction =     0.001241
     Energy error            =      1.1E-04 Ry
     Gradient error          =      2.5E-02 Ry/Bohr

     number of scf cycles    =   4
     number of bfgs steps    =   1

     energy             old  =      -2.2985928366 Ry
     energy             new  =      -2.2984791250 Ry

     CASE: energy            _new > energy            _old

     new trust radius        =       0.0001502163 bohr
     new conv_thr            =       0.0000000100 Ry


ATOMIC_POSITIONS (angstrom)
H             0.0000794910        0.0000000000        0.0000000000
H             0.7399205090        0.0000000000        0.0000000000



     Writing config-only to output data dir ./.save/
     NEW-OLD atomic charge density approx. for the potential

     negative rho (up, down):  1.774E-01 0.000E+00

     total cpu time spent up to now is       28.4 secs

     Self-consistent Calculation

     iteration #  1     ecut=    15.00 Ry     beta= 0.70
     Davidson diagonalization with overlap

---- Real-time Memory Report at c_bands before calling an iterative solver
           209 MiB given to the printing process from OS
             0 MiB allocation reported by mallinfo(arena+hblkhd)
           470 MiB available memory on the node where the printing process lives
------------------
     ethr =  1.00E-06,  avg # of iterations =  2.0

     Threshold (ethr) on eigenvalues was too large:
     Diagonalizing with lowered threshold

     Davidson diagonalization with overlap

---- Real-time Memory Report at c_bands before calling an iterative solver
           209 MiB given to the printing process from OS
             0 MiB allocation reported by mallinfo(arena+hblkhd)
           458 MiB available memory on the node where the printing process lives
------------------
     ethr =  1.25E-08,  avg # of iterations =  1.0

     negative rho (up, down):  1.772E-01 0.000E+00

     total cpu time spent up to now is       28.9 secs

     total energy              =      -2.29861433 Ry
     estimated scf accuracy    <       0.00000028 Ry

     iteration #  2     ecut=    15.00 Ry     beta= 0.70
     Davidson diagonalization with overlap

---- Real-time Memory Report at c_bands before calling an iterative solver
           209 MiB given to the printing process from OS
             0 MiB allocation reported by mallinfo(arena+hblkhd)
           412 MiB available memory on the node where the printing process lives
------------------
     ethr =  1.39E-08,  avg # of iterations =  3.0

     negative rho (up, down):  1.772E-01 0.000E+00

     total cpu time spent up to now is       29.3 secs

     total energy              =      -2.29860481 Ry
     estimated scf accuracy    <       0.00000002 Ry

     iteration #  3     ecut=    15.00 Ry     beta= 0.70
     Davidson diagonalization with overlap

---- Real-time Memory Report at c_bands before calling an iterative solver
           209 MiB given to the printing process from OS
             0 MiB allocation reported by mallinfo(arena+hblkhd)
           406 MiB available memory on the node where the printing process lives
------------------
     ethr =  1.02E-09,  avg # of iterations =  3.0

     negative rho (up, down):  1.772E-01 0.000E+00

     total cpu time spent up to now is       29.6 secs

     End of self-consistent calculation

          k =-0.5000-0.5000-0.5000 ( 26344 PWs)   bands (ev):

   -10.7045  -1.4490

     occupation numbers 
     1.0000   0.0000

     highest occupied, lowest unoccupied level (ev):   -10.7045   -1.4490

!    total energy              =      -2.29860530 Ry
     estimated scf accuracy    <          8.7E-09 Ry

     The total energy is the sum of the following terms:
     one-electron contribution =      -4.22724332 Ry
     hartree contribution      =       2.27183234 Ry
     xc contribution           =      -1.39570821 Ry
     ewald contribution        =       1.05251389 Ry

     convergence has been achieved in   3 iterations

     Forces acting on atoms (cartesian axes, Ry/au):

     atom    1 type  1   force =     0.02722440    0.00000000    0.00000000
     atom    2 type  1   force =    -0.02722440    0.00000000    0.00000000
     The non-local contrib.  to forces
     atom    1 type  1   force =     0.13390681    0.00000000    0.00000000
     atom    2 type  1   force =    -0.13485495    0.00000000    0.00000000
     The ionic contribution  to forces
     atom    1 type  1   force =    -1.02275145    0.00000000   -0.00000000
     atom    2 type  1   force =     1.02275145   -0.00000000   -0.00000000
     The local contribution  to forces
     atom    1 type  1   force =     0.91582022    0.00000000    0.00000000
     atom    2 type  1   force =    -0.91573781    0.00000000    0.00000000
     The core correction contribution to forces
     atom    1 type  1   force =     0.00000000    0.00000000    0.00000000
     atom    2 type  1   force =     0.00000000    0.00000000    0.00000000
     The Hubbard contrib.    to forces
     atom    1 type  1   force =     0.00000000    0.00000000    0.00000000
     atom    2 type  1   force =     0.00000000    0.00000000    0.00000000
     The SCF correction term to forces
     atom    1 type  1   force =     0.00005510    0.00000000    0.00000000
     atom    2 type  1   force =     0.00042321   -0.00000000   -0.00000000

     Total force =     0.038501     Total SCF correction =     0.000427
     Energy error            =      1.2E-05 Ry
     Gradient error          =      2.7E-02 Ry/Bohr

     number of scf cycles    =   5
     number of bfgs steps    =   1

     energy             old  =      -2.2985928366 Ry
     energy             new  =      -2.2986053033 Ry

     CASE: energy            _new < energy            _old

     new trust radius        =       0.0002253245 bohr
     new conv_thr            =            1.0E-10 Ry


ATOMIC_POSITIONS (angstrom)
H             0.0001987276        0.0000000000        0.0000000000
H             0.7398012724        0.0000000000        0.0000000000



     Writing config-only to output data dir ./.save/
     NEW-OLD atomic charge density approx. for the potential

     negative rho (up, down):  1.772E-01 0.000E+00

     total cpu time spent up to now is       30.0 secs

     Self-consistent Calculation

     iteration #  1     ecut=    15.00 Ry     beta= 0.70
     Davidson diagonalization with overlap

---- Real-time Memory Report at c_bands before calling an iterative solver
           209 MiB given to the printing process from OS
             0 MiB allocation reported by mallinfo(arena+hblkhd)
           470 MiB available memory on the node where the printing process lives
------------------
     ethr =  1.00E-06,  avg # of iterations =  2.0

     Threshold (ethr) on eigenvalues was too large:
     Diagonalizing with lowered threshold

     Davidson diagonalization with overlap

---- Real-time Memory Report at c_bands before calling an iterative solver
           209 MiB given to the printing process from OS
             0 MiB allocation reported by mallinfo(arena+hblkhd)
           458 MiB available memory on the node where the printing process lives
------------------
     ethr =  1.09E-09,  avg # of iterations =  1.0

     negative rho (up, down):  1.772E-01 0.000E+00

     total cpu time spent up to now is       30.5 secs

     total energy              =      -2.29857501 Ry
     estimated scf accuracy    <       0.00000003 Ry

     iteration #  2     ecut=    15.00 Ry     beta= 0.70
     Davidson diagonalization with overlap

---- Real-time Memory Report at c_bands before calling an iterative solver
           209 MiB given to the printing process from OS
             0 MiB allocation reported by mallinfo(arena+hblkhd)
           412 MiB available memory on the node where the printing process lives
------------------
     ethr =  1.39E-09,  avg # of iterations =  4.0

     negative rho (up, down):  1.772E-01 0.000E+00

     total cpu time spent up to now is       30.9 secs

     total energy              =      -2.29860891 Ry
     estimated scf accuracy    <       0.00000019 Ry

     iteration #  3     ecut=    15.00 Ry     beta= 0.70
     Davidson diagonalization with overlap

---- Real-time Memory Report at c_bands before calling an iterative solver
           209 MiB given to the printing process from OS
             0 MiB allocation reported by mallinfo(arena+hblkhd)
           406 MiB available memory on the node where the printing process lives
------------------
     ethr =  1.39E-09,  avg # of iterations =  4.0

     negative rho (up, down):  1.772E-01 0.000E+00

     total cpu time spent up to now is       31.3 secs

     total energy              =      -2.29861544 Ry
     estimated scf accuracy    <       0.00000002 Ry

     iteration #  4     ecut=    15.00 Ry     beta= 0.70
     Davidson diagonalization with overlap

---- Real-time Memory Report at c_bands before calling an iterative solver
           209 MiB given to the printing process from OS
             0 MiB allocation reported by mallinfo(arena+hblkhd)
           400 MiB available memory on the node where the printing process lives
------------------
     ethr =  1.24E-09,  avg # of iterations =  3.0

     negative rho (up, down):  1.772E-01 0.000E+00

     total cpu time spent up to now is       31.7 secs

     total energy              =      -2.29860512 Ry
     estimated scf accuracy    <          1.6E-09 Ry

     iteration #  5     ecut=    15.00 Ry     beta= 0.70
     Davidson diagonalization with overlap

---- Real-time Memory Report at c_bands before calling an iterative solver
           209 MiB given to the printing process from OS
             0 MiB allocation reported by mallinfo(arena+hblkhd)
           393 MiB available memory on the node where the printing process lives
------------------
     ethr =  8.04E-11,  avg # of iterations =  4.0

     negative rho (up, down):  1.772E-01 0.000E+00

     total cpu time spent up to now is       32.1 secs

     total energy              =      -2.29859523 Ry
     estimated scf accuracy    <       0.00000001 Ry

     iteration #  6     ecut=    15.00 Ry     beta= 0.70
     Davidson diagonalization with overlap

---- Real-time Memory Report at c_bands before calling an iterative solver
           209 MiB given to the printing process from OS
             0 MiB allocation reported by mallinfo(arena+hblkhd)
           387 MiB available memory on the node where the printing process lives
------------------
     ethr =  8.04E-11,  avg # of iterations =  5.0

     negative rho (up, down):  1.772E-01 0.000E+00

     total cpu time spent up to now is       32.5 secs

     total energy              =      -2.29859836 Ry
     estimated scf accuracy    <       0.00000010 Ry

     iteration #  7     ecut=    15.00 Ry     beta= 0.70
     Davidson diagonalization with overlap

---- Real-time Memory Report at c_bands before calling an iterative solver
           209 MiB given to the printing process from OS
             0 MiB allocation reported by mallinfo(arena+hblkhd)
           380 MiB available memory on the node where the printing process lives
------------------
     ethr =  8.04E-11,  avg # of iterations =  4.0

     negative rho (up, down):  1.772E-01 0.000E+00

     total cpu time spent up to now is       32.9 secs

     total energy              =      -2.29858753 Ry
     estimated scf accuracy    <       0.00000005 Ry

     iteration #  8     ecut=    15.00 Ry     beta= 0.70
     Davidson diagonalization with overlap

---- Real-time Memory Report at c_bands before calling an iterative solver
           209 MiB given to the printing process from OS
             0 MiB allocation reported by mallinfo(arena+hblkhd)
           374 MiB available memory on the node where the printing process lives
------------------
     ethr =  8.04E-11,  avg # of iterations =  4.0

     negative rho (up, down):  1.772E-01 0.000E+00

     total cpu time spent up to now is       33.3 secs

     total energy              =      -2.29858805 Ry
     estimated scf accuracy    <       0.00000006 Ry

     iteration #  9     ecut=    15.00 Ry     beta= 0.70
     Davidson diagonalization with overlap

---- Real-time Memory Report at c_bands before calling an iterative solver
           209 MiB given to the printing process from OS
             0 MiB allocation reported by mallinfo(arena+hblkhd)
           367 MiB available memory on the node where the printing process lives
------------------
     ethr =  8.04E-11,  avg # of iterations =  3.0

     negative rho (up, down):  1.772E-01 0.000E+00

     total cpu time spent up to now is       33.7 secs

     total energy              =      -2.29858812 Ry
     estimated scf accuracy    <       0.00000007 Ry

     iteration # 10     ecut=    15.00 Ry     beta= 0.70
     Davidson diagonalization with overlap

---- Real-time Memory Report at c_bands before calling an iterative solver
           209 MiB given to the printing process from OS
             0 MiB allocation reported by mallinfo(arena+hblkhd)
           361 MiB available memory on the node where the printing process lives
------------------
     ethr =  8.04E-11,  avg # of iterations =  2.0

     negative rho (up, down):  1.772E-01 0.000E+00

     total cpu time spent up to now is       34.0 secs

     total energy              =      -2.29859124 Ry
     estimated scf accuracy    <       0.00000007 Ry

     iteration # 11     ecut=    15.00 Ry     beta= 0.70
     Davidson diagonalization with overlap

---- Real-time Memory Report at c_bands before calling an iterative solver
           209 MiB given to the printing process from OS
             0 MiB allocation reported by mallinfo(arena+hblkhd)
           361 MiB available memory on the node where the printing process lives
------------------
     ethr =  8.04E-11,  avg # of iterations =  4.0

     negative rho (up, down):  1.772E-01 0.000E+00

     total cpu time spent up to now is       34.4 secs

     total energy              =      -2.29859151 Ry
     estimated scf accuracy    <       0.00000002 Ry

     iteration # 12     ecut=    15.00 Ry     beta= 0.70
     Davidson diagonalization with overlap

---- Real-time Memory Report at c_bands before calling an iterative solver
           209 MiB given to the printing process from OS
             0 MiB allocation reported by mallinfo(arena+hblkhd)
           361 MiB available memory on the node where the printing process lives
------------------
     ethr =  8.04E-11,  avg # of iterations =  3.0

     negative rho (up, down):  1.772E-01 0.000E+00

     total cpu time spent up to now is       34.8 secs

[...]
------------------
     ethr =  8.04E-11,  avg # of iterations =  3.0

     negative rho (up, down):  1.772E-01 0.000E+00

     total cpu time spent up to now is       61.4 secs

     total energy              =      -2.29863205 Ry
     estimated scf accuracy    <       0.00000007 Ry

     iteration # 77     ecut=    15.00 Ry     beta= 0.70
     Davidson diagonalization with overlap

---- Real-time Memory Report at c_bands before calling an iterative solver
           209 MiB given to the printing process from OS
             0 MiB allocation reported by mallinfo(arena+hblkhd)
           361 MiB available memory on the node where the printing process lives
------------------
     ethr =  8.04E-11,  avg # of iterations =  4.0

     negative rho (up, down):  1.772E-01 0.000E+00

     total cpu time spent up to now is       61.8 secs

     total energy              =      -2.29863426 Ry
     estimated scf accuracy    <          6.8E-09 Ry

     iteration # 78     ecut=    15.00 Ry     beta= 0.70
     Davidson diagonalization with overlap

---- Real-time Memory Report at c_bands before calling an iterative solver
           209 MiB given to the printing process from OS
             0 MiB allocation reported by mallinfo(arena+hblkhd)
           361 MiB available memory on the node where the printing process lives
------------------
     ethr =  8.04E-11,  avg # of iterations =  2.0

     negative rho (up, down):  1.772E-01 0.000E+00

     total cpu time spent up to now is       62.2 secs

     total energy              =      -2.29861763 Ry
     estimated scf accuracy    <          7.2E-09 Ry

     iteration # 79     ecut=    15.00 Ry     beta= 0.70
     Davidson diagonalization with overlap

---- Real-time Memory Report at c_bands before calling an iterative solver
           209 MiB given to the printing process from OS
             0 MiB allocation reported by mallinfo(arena+hblkhd)
           361 MiB available memory on the node where the printing process lives
------------------
     ethr =  8.04E-11,  avg # of iterations =  4.0

     negative rho (up, down):  1.772E-01 0.000E+00

     total cpu time spent up to now is       62.6 secs

     total energy              =      -2.29859383 Ry
     estimated scf accuracy    <       0.00000001 Ry

     iteration # 80     ecut=    15.00 Ry     beta= 0.70
     Davidson diagonalization with overlap

---- Real-time Memory Report at c_bands before calling an iterative solver
           209 MiB given to the printing process from OS
             0 MiB allocation reported by mallinfo(arena+hblkhd)
           361 MiB available memory on the node where the printing process lives
------------------
     ethr =  8.04E-11,  avg # of iterations =  4.0

     negative rho (up, down):  1.772E-01 0.000E+00

     total cpu time spent up to now is       63.1 secs

     total energy              =      -2.29862161 Ry
     estimated scf accuracy    <          9.8E-09 Ry

     iteration # 81     ecut=    15.00 Ry     beta= 0.70
     Davidson diagonalization with overlap

---- Real-time Memory Report at c_bands before calling an iterative solver
           209 MiB given to the printing process from OS
             0 MiB allocation reported by mallinfo(arena+hblkhd)
           361 MiB available memory on the node where the printing process lives
------------------
     ethr =  8.04E-11,  avg # of iterations =  4.0

     negative rho (up, down):  1.772E-01 0.000E+00

     total cpu time spent up to now is       63.5 secs

     total energy              =      -2.29860641 Ry
     estimated scf accuracy    <       0.00000006 Ry

     iteration # 82     ecut=    15.00 Ry     beta= 0.70
     Davidson diagonalization with overlap

---- Real-time Memory Report at c_bands before calling an iterative solver
           209 MiB given to the printing process from OS
             0 MiB allocation reported by mallinfo(arena+hblkhd)
           361 MiB available memory on the node where the printing process lives
------------------
     ethr =  8.04E-11,  avg # of iterations =  5.0

     negative rho (up, down):  1.772E-01 0.000E+00

     total cpu time spent up to now is       63.9 secs

     total energy              =      -2.29861411 Ry
     estimated scf accuracy    <       0.00000004 Ry

     iteration # 83     ecut=    15.00 Ry     beta= 0.70
     Davidson diagonalization with overlap

---- Real-time Memory Report at c_bands before calling an iterative solver
           209 MiB given to the printing process from OS
             0 MiB allocation reported by mallinfo(arena+hblkhd)
           361 MiB available memory on the node where the printing process lives
------------------
     ethr =  8.04E-11,  avg # of iterations =  5.0

     negative rho (up, down):  1.772E-01 0.000E+00

     total cpu time spent up to now is       64.3 secs

     total energy              =      -2.29863013 Ry
     estimated scf accuracy    <       0.00000004 Ry

     iteration # 84     ecut=    15.00 Ry     beta= 0.70
     Davidson diagonalization with overlap

---- Real-time Memory Report at c_bands before calling an iterative solver
           209 MiB given to the printing process from OS
             0 MiB allocation reported by mallinfo(arena+hblkhd)
           361 MiB available memory on the node where the printing process lives
------------------
     ethr =  8.04E-11,  avg # of iterations =  4.0

     negative rho (up, down):  1.772E-01 0.000E+00

     total cpu time spent up to now is       64.7 secs

     total energy              =      -2.29862123 Ry
     estimated scf accuracy    <       0.00000003 Ry

     iteration # 85     ecut=    15.00 Ry     beta= 0.70
     Davidson diagonalization with overlap

---- Real-time Memory Report at c_bands before calling an iterative solver
           209 MiB given to the printing process from OS
             0 MiB allocation reported by mallinfo(arena+hblkhd)
           361 MiB available memory on the node where the printing process lives
------------------
     ethr =  8.04E-11,  avg # of iterations =  4.0

     negative rho (up, down):  1.773E-01 0.000E+00

     total cpu time spent up to now is       65.2 secs

     total energy              =      -2.29857052 Ry
     estimated scf accuracy    <       0.00000006 Ry

     iteration # 86     ecut=    15.00 Ry     beta= 0.70
     Davidson diagonalization with overlap

---- Real-time Memory Report at c_bands before calling an iterative solver
           209 MiB given to the printing process from OS
             0 MiB allocation reported by mallinfo(arena+hblkhd)
           361 MiB available memory on the node where the printing process lives
------------------
     ethr =  8.04E-11,  avg # of iterations =  5.0

     negative rho (up, down):  1.772E-01 0.000E+00

     total cpu time spent up to now is       65.6 secs

     total energy              =      -2.29858151 Ry
     estimated scf accuracy    <       0.00000008 Ry

     iteration # 87     ecut=    15.00 Ry     beta= 0.70
     Davidson diagonalization with overlap

---- Real-time Memory Report at c_bands before calling an iterative solver
           209 MiB given to the printing process from OS
             0 MiB allocation reported by mallinfo(arena+hblkhd)
           361 MiB available memory on the node where the printing process lives
------------------
     ethr =  8.04E-11,  avg # of iterations =  4.0

     negative rho (up, down):  1.772E-01 0.000E+00

     total cpu time spent up to now is       66.0 secs

     total energy              =      -2.29858747 Ry
     estimated scf accuracy    <       0.00000007 Ry

     iteration # 88     ecut=    15.00 Ry     beta= 0.70
     Davidson diagonalization with overlap

---- Real-time Memory Report at c_bands before calling an iterative solver
           209 MiB given to the printing process from OS
             0 MiB allocation reported by mallinfo(arena+hblkhd)
           361 MiB available memory on the node where the printing process lives
------------------
     ethr =  8.04E-11,  avg # of iterations =  4.0

     negative rho (up, down):  1.772E-01 0.000E+00

     total cpu time spent up to now is       66.4 secs

     total energy              =      -2.29860006 Ry
     estimated scf accuracy    <       0.00000005 Ry

     iteration # 89     ecut=    15.00 Ry     beta= 0.70
     Davidson diagonalization with overlap

---- Real-time Memory Report at c_bands before calling an iterative solver
           209 MiB given to the printing process from OS
             0 MiB allocation reported by mallinfo(arena+hblkhd)
           361 MiB available memory on the node where the printing process lives
------------------
     ethr =  8.04E-11,  avg # of iterations =  4.0

     negative rho (up, down):  1.772E-01 0.000E+00

     total cpu time spent up to now is       66.8 secs

     total energy              =      -2.29859069 Ry
     estimated scf accuracy    <          9.4E-09 Ry

     iteration # 90     ecut=    15.00 Ry     beta= 0.70
     Davidson diagonalization with overlap

---- Real-time Memory Report at c_bands before calling an iterative solver
           209 MiB given to the printing process from OS
             0 MiB allocation reported by mallinfo(arena+hblkhd)
           361 MiB available memory on the node where the printing process lives
------------------
     ethr =  8.04E-11,  avg # of iterations =  4.0

     negative rho (up, down):  1.772E-01 0.000E+00

     total cpu time spent up to now is       67.2 secs

     total energy              =      -2.29859320 Ry
     estimated scf accuracy    <       0.00000004 Ry

     iteration # 91     ecut=    15.00 Ry     beta= 0.70
     Davidson diagonalization with overlap

---- Real-time Memory Report at c_bands before calling an iterative solver
           209 MiB given to the printing process from OS
             0 MiB allocation reported by mallinfo(arena+hblkhd)
           361 MiB available memory on the node where the printing process lives
------------------
     ethr =  8.04E-11,  avg # of iterations =  3.0

     negative rho (up, down):  1.772E-01 0.000E+00

     total cpu time spent up to now is       67.6 secs

     total energy              =      -2.29859566 Ry
     estimated scf accuracy    <       0.00000005 Ry

     iteration # 92     ecut=    15.00 Ry     beta= 0.70
     Davidson diagonalization with overlap

---- Real-time Memory Report at c_bands before calling an iterative solver
           209 MiB given to the printing process from OS
             0 MiB allocation reported by mallinfo(arena+hblkhd)
           361 MiB available memory on the node where the printing process lives
------------------
     ethr =  8.04E-11,  avg # of iterations =  4.0

     negative rho (up, down):  1.772E-01 0.000E+00

     total cpu time spent up to now is       68.1 secs

     total energy              =      -2.29861939 Ry
     estimated scf accuracy    <       0.00000010 Ry

     iteration # 93     ecut=    15.00 Ry     beta= 0.70
     Davidson diagonalization with overlap

---- Real-time Memory Report at c_bands before calling an iterative solver
           209 MiB given to the printing process from OS
             0 MiB allocation reported by mallinfo(arena+hblkhd)
           361 MiB available memory on the node where the printing process lives
------------------
     ethr =  8.04E-11,  avg # of iterations =  5.0

     negative rho (up, down):  1.772E-01 0.000E+00

     total cpu time spent up to now is       68.5 secs

     total energy              =      -2.29863241 Ry
     estimated scf accuracy    <          7.9E-09 Ry

     iteration # 94     ecut=    15.00 Ry     beta= 0.70
     Davidson diagonalization with overlap

---- Real-time Memory Report at c_bands before calling an iterative solver
           209 MiB given to the printing process from OS
             0 MiB allocation reported by mallinfo(arena+hblkhd)
           361 MiB available memory on the node where the printing process lives
------------------
     ethr =  8.04E-11,  avg # of iterations =  4.0

     negative rho (up, down):  1.772E-01 0.000E+00

     total cpu time spent up to now is       69.0 secs

     total energy              =      -2.29860921 Ry
     estimated scf accuracy    <       0.00000006 Ry

     iteration # 95     ecut=    15.00 Ry     beta= 0.70
     Davidson diagonalization with overlap

---- Real-time Memory Report at c_bands before calling an iterative solver
           209 MiB given to the printing process from OS
             0 MiB allocation reported by mallinfo(arena+hblkhd)
           361 MiB available memory on the node where the printing process lives
------------------
     ethr =  8.04E-11,  avg # of iterations =  5.0

     negative rho (up, down):  1.772E-01 0.000E+00

     total cpu time spent up to now is       69.4 secs

     total energy              =      -2.29857900 Ry
     estimated scf accuracy    <          9.2E-09 Ry

     iteration # 96     ecut=    15.00 Ry     beta= 0.70
     Davidson diagonalization with overlap

---- Real-time Memory Report at c_bands before calling an iterative solver
           209 MiB given to the printing process from OS
             0 MiB allocation reported by mallinfo(arena+hblkhd)
           361 MiB available memory on the node where the printing process lives
------------------
     ethr =  8.04E-11,  avg # of iterations =  5.0

     negative rho (up, down):  1.773E-01 0.000E+00

     total cpu time spent up to now is       69.8 secs

     total energy              =      -2.29857343 Ry
     estimated scf accuracy    <       0.00000009 Ry

     iteration # 97     ecut=    15.00 Ry     beta= 0.70
     Davidson diagonalization with overlap

---- Real-time Memory Report at c_bands before calling an iterative solver
           209 MiB given to the printing process from OS
             0 MiB allocation reported by mallinfo(arena+hblkhd)
           361 MiB available memory on the node where the printing process lives
------------------
     ethr =  8.04E-11,  avg # of iterations =  4.0

     negative rho (up, down):  1.772E-01 0.000E+00

     total cpu time spent up to now is       70.2 secs

     total energy              =      -2.29858125 Ry
     estimated scf accuracy    <       0.00000008 Ry

     iteration # 98     ecut=    15.00 Ry     beta= 0.70
     Davidson diagonalization with overlap

---- Real-time Memory Report at c_bands before calling an iterative solver
           209 MiB given to the printing process from OS
             0 MiB allocation reported by mallinfo(arena+hblkhd)
           361 MiB available memory on the node where the printing process lives
------------------
     ethr =  8.04E-11,  avg # of iterations =  4.0

     negative rho (up, down):  1.772E-01 0.000E+00

     total cpu time spent up to now is       70.7 secs

     total energy              =      -2.29860340 Ry
     estimated scf accuracy    <       0.00000010 Ry

     iteration # 99     ecut=    15.00 Ry     beta= 0.70
     Davidson diagonalization with overlap

---- Real-time Memory Report at c_bands before calling an iterative solver
           209 MiB given to the printing process from OS
             0 MiB allocation reported by mallinfo(arena+hblkhd)
           361 MiB available memory on the node where the printing process lives
------------------
     ethr =  8.04E-11,  avg # of iterations =  5.0

     negative rho (up, down):  1.772E-01 0.000E+00

     total cpu time spent up to now is       71.1 secs

     total energy              =      -2.29858759 Ry
     estimated scf accuracy    <       0.00000004 Ry

     iteration #100     ecut=    15.00 Ry     beta= 0.70
     Davidson diagonalization with overlap

---- Real-time Memory Report at c_bands before calling an iterative solver
           209 MiB given to the printing process from OS
             0 MiB allocation reported by mallinfo(arena+hblkhd)
           361 MiB available memory on the node where the printing process lives
------------------
     ethr =  8.04E-11,  avg # of iterations =  5.0

     negative rho (up, down):  1.772E-01 0.000E+00

     total cpu time spent up to now is       71.5 secs

     total energy              =      -2.29862087 Ry
     estimated scf accuracy    <       0.00000001 Ry

     End of self-consistent calculation

     convergence NOT achieved after 100 iterations: stopping

     Writing config to output data dir ./.save/
     Message from routine punch:
     wavefunctions written to file

     init_run     :      0.36s CPU      0.39s WALL (       1 calls)
     electrons    :     69.08s CPU     69.32s WALL (       6 calls)
     update_pot   :      1.22s CPU      1.24s WALL (       5 calls)
     forces       :      0.43s CPU      0.45s WALL (       5 calls)

     Called by init_run:
     wfcinit      :      0.03s CPU      0.03s WALL (       1 calls)
     wfcinit:atom :      0.00s CPU      0.00s WALL (       1 calls)
     wfcinit:wfcr :      0.03s CPU      0.03s WALL (       1 calls)
     potinit      :      0.21s CPU      0.24s WALL (       1 calls)
     hinit0       :      0.03s CPU      0.03s WALL (       1 calls)

     Called by electrons:
     c_bands      :     16.15s CPU     16.19s WALL (     171 calls)
     sum_band     :      7.85s CPU      7.87s WALL (     171 calls)
     v_of_rho     :     35.31s CPU     35.36s WALL (     175 calls)
     v_h          :      2.00s CPU      2.00s WALL (     175 calls)
     v_xc         :     33.31s CPU     33.36s WALL (     175 calls)
     newd         :      2.58s CPU      2.58s WALL (     175 calls)
     mix_rho      :      7.72s CPU      7.80s WALL (     171 calls)

     Called by c_bands:
     init_us_2    :      0.24s CPU      0.24s WALL (     343 calls)
     init_us_2:cp :      0.24s CPU      0.24s WALL (     343 calls)
     cegterg      :     15.98s CPU     16.02s WALL (     171 calls)

     Called by sum_band:
     sum_band:wei :      0.00s CPU      0.00s WALL (     171 calls)
     sum_band:loo :      2.32s CPU      2.32s WALL (     171 calls)
     sum_band:buf :      0.00s CPU      0.00s WALL (     171 calls)
     sum_band:ini :      0.12s CPU      0.12s WALL (     171 calls)
     sum_band:cal :      0.03s CPU      0.03s WALL (     171 calls)
     sum_band:bec :      0.00s CPU      0.00s WALL (     171 calls)
     addusdens    :      0.72s CPU      0.73s WALL (     171 calls)
     addusd:skk   :      0.22s CPU      0.22s WALL (     171 calls)
     addusd:dgemm :      0.15s CPU      0.15s WALL (     171 calls)
     addusd:qvan2 :      0.18s CPU      0.18s WALL (     171 calls)

     Called by *egterg:
     cdiaghg      :      0.02s CPU      0.02s WALL (     790 calls)
     cegterg:over :      0.21s CPU      0.21s WALL (     626 calls)
     cegterg:upda :      0.16s CPU      0.16s WALL (     626 calls)
     cegterg:last :      0.33s CPU      0.33s WALL (     476 calls)
     h_psi        :     14.94s CPU     14.98s WALL (     798 calls)
     s_psi        :      0.08s CPU      0.08s WALL (     798 calls)
     g_psi        :      0.07s CPU      0.07s WALL (     626 calls)

     Called by h_psi:
     h_psi:calbec :      0.12s CPU      0.12s WALL (     798 calls)
     vloc_psi     :     14.68s CPU     14.72s WALL (     798 calls)
     add_vuspsi   :      0.09s CPU      0.09s WALL (     798 calls)

     General routines
     calbec       :      0.15s CPU      0.15s WALL (     989 calls)
     fft          :     17.54s CPU     17.57s WALL (    1942 calls)
     ffts         :      1.58s CPU      1.59s WALL (     171 calls)
     fftw         :     15.24s CPU     15.29s WALL (    2706 calls)
     davcio       :      0.01s CPU      0.01s WALL (      19 calls)


     PWSCF        :   1m11.30s CPU   1m11.61s WALL


   This run was terminated on:   3: 4:19  28Feb2022            

=------------------------------------------------------------------------------=
   JOB DONE.
=------------------------------------------------------------------------------=
