
     Program PWSCF v.7.0 starts on 28Feb2022 at  0:59:30 

     This program is part of the open-source Quantum ESPRESSO suite
     for quantum simulation of materials; please cite
         "P. Giannozzi et al., J. Phys.:Condens. Matter 21 395502 (2009);
         "P. Giannozzi et al., J. Phys.:Condens. Matter 29 465901 (2017);
         "P. Giannozzi et al., J. Chem. Phys. 152 154105 (2020);
          URL http://www.quantum-espresso.org", 
     in publications or presentations arising from this work. More details at
     http://www.quantum-espresso.org/quote

     Serial version
     223 MiB available memory on the printing compute node when the environment starts

     Waiting for input...
     Reading input from standard input

     Current dimensions of program PWSCF are:
     Max number of different atomic species (ntypx) = 10
     Max number of k-points (npk) =  40000
     Max angular momentum in pseudopotentials (lmaxx) =  4

     File ./.update deleted, as requested

     File ./.bfgs deleted, as requested

    ============================================================
    |  pseudopotential report for atomic species:  1           |
    |        pseudo potential version   7   3   2              |
    ------------------------------------------------------------
    |  hydrogen            PBE                  exchange-corr  |
    |  z =   1.    zv( 1) =   1.    exfact =   5.00000         |
    |  ifpcor =  0           atomic energy =  -0.91772 Ry      |
    |  index    orbital      occupation    energy              |
    |    1        100           1.00       -0.48               |
    |  rinner =  0.5000                                        |
    |    new generation scheme:                                |
    |    nbeta =  1     kkbeta =  271     rcloc =    0.6000    |
    |    ibeta    l     epsilon   rcut                         |
    |      1       0      -0.48   0.80                         |
    ============================================================

     IMPORTANT: XC functional enforced from input :
     Exchange-correlation= BLYP
                           (   1   3   1   3   0   0   0)
     Any further DFT definition will be discarded
     Please, verify this is what you really want


     G-vector sticks info
     --------------------
     sticks:   dense  smooth     PW     G-vecs:    dense   smooth      PW
     Sum        4281    4281   1185               211657   211657   30551

     Using Slab Decomposition



     bravais-lattice index     =            1
     lattice parameter (alat)  =      30.0000  a.u.
     unit-cell volume          =   27000.0000 (a.u.)^3
     number of atoms/cell      =            2
     number of atomic types    =            1
     number of electrons       =         2.00
     number of Kohn-Sham states=            2
     kinetic-energy cutoff     =      15.0000  Ry
     charge density cutoff     =      60.0000  Ry
     scf convergence threshold =      1.0E-08
     mixing beta               =       0.7000
     number of iterations used =            8  plain     mixing
     energy convergence thresh.=      1.0E-04
     force convergence thresh. =      1.0E-03
     Exchange-correlation= BLYP
                           (   1   3   1   3   0   0   0)
     nstep                     =           50


     celldm(1)=  30.000000  celldm(2)=   0.000000  celldm(3)=   0.000000
     celldm(4)=   0.000000  celldm(5)=   0.000000  celldm(6)=   0.000000

     crystal axes: (cart. coord. in units of alat)
               a(1) = (   1.000000   0.000000   0.000000 )  
               a(2) = (   0.000000   1.000000   0.000000 )  
               a(3) = (   0.000000   0.000000   1.000000 )  

     reciprocal axes: (cart. coord. in units 2 pi/alat)
               b(1) = (  1.000000  0.000000  0.000000 )  
               b(2) = (  0.000000  1.000000  0.000000 )  
               b(3) = (  0.000000  0.000000  1.000000 )  


     PseudoPot. # 1 for hy read from file:
     /root/q-e/pseudo/H_US.van
     MD5 check sum: a9a9bfe98ff56cf4de197d71fc46bb44
     Pseudo is Ultrasoft, Zval =  1.0
     Generated by Vanderbilt code, v. 7.3.2
     Using radial grid of  399 points,  1 beta functions with: 
                l(1) =   0
     Q(r) pseudized with  8 coefficients,  rinner =    0.500

     atomic species   valence    mass     pseudopotential
        H              1.00     1.00784     hy( 1.00)

      8 Sym. Ops. (no inversion) found


                                    s                        frac. trans.

      isym =  1     identity                                     

 cryst.   s( 1) = (     1          0          0      )
                  (     0          1          0      )
                  (     0          0          1      )

 cart.    s( 1) = (  1.0000000  0.0000000  0.0000000 )
                  (  0.0000000  1.0000000  0.0000000 )
                  (  0.0000000  0.0000000  1.0000000 )


      isym =  2     180 deg rotation - cart. axis [1,0,0]        

 cryst.   s( 2) = (     1          0          0      )
                  (     0         -1          0      )
                  (     0          0         -1      )

 cart.    s( 2) = (  1.0000000  0.0000000  0.0000000 )
                  (  0.0000000 -1.0000000  0.0000000 )
                  (  0.0000000  0.0000000 -1.0000000 )


      isym =  3      90 deg rotation - cart. axis [-1,0,0]       

 cryst.   s( 3) = (     1          0          0      )
                  (     0          0         -1      )
                  (     0          1          0      )

 cart.    s( 3) = (  1.0000000  0.0000000  0.0000000 )
                  (  0.0000000  0.0000000  1.0000000 )
                  (  0.0000000 -1.0000000  0.0000000 )


      isym =  4      90 deg rotation - cart. axis [1,0,0]        

 cryst.   s( 4) = (     1          0          0      )
                  (     0          0          1      )
                  (     0         -1          0      )

 cart.    s( 4) = (  1.0000000  0.0000000  0.0000000 )
                  (  0.0000000  0.0000000 -1.0000000 )
                  (  0.0000000  1.0000000  0.0000000 )


      isym =  5     inv. 180 deg rotation - cart. axis [0,0,1]   

 cryst.   s( 5) = (     1          0          0      )
                  (     0          1          0      )
                  (     0          0         -1      )

 cart.    s( 5) = (  1.0000000  0.0000000  0.0000000 )
                  (  0.0000000  1.0000000  0.0000000 )
                  (  0.0000000  0.0000000 -1.0000000 )


      isym =  6     inv. 180 deg rotation - cart. axis [0,1,0]   

 cryst.   s( 6) = (     1          0          0      )
                  (     0         -1          0      )
                  (     0          0          1      )

 cart.    s( 6) = (  1.0000000  0.0000000  0.0000000 )
                  (  0.0000000 -1.0000000  0.0000000 )
                  (  0.0000000  0.0000000  1.0000000 )


      isym =  7     inv. 180 deg rotation - cart. axis [0,1,1]   

 cryst.   s( 7) = (     1          0          0      )
                  (     0          0         -1      )
                  (     0         -1          0      )

 cart.    s( 7) = (  1.0000000  0.0000000  0.0000000 )
                  (  0.0000000  0.0000000 -1.0000000 )
                  (  0.0000000 -1.0000000  0.0000000 )


      isym =  8     inv. 180 deg rotation - cart. axis [0,1,-1]  

 cryst.   s( 8) = (     1          0          0      )
                  (     0          0          1      )
                  (     0          1          0      )

 cart.    s( 8) = (  1.0000000  0.0000000  0.0000000 )
                  (  0.0000000  0.0000000  1.0000000 )
                  (  0.0000000  1.0000000  0.0000000 )


     point group C_4v (4mm) 
     there are  5 classes
     the character table:

       E     2C4   C2    2s_v  2s_d 
A_1    1.00  1.00  1.00  1.00  1.00
A_2    1.00  1.00  1.00 -1.00 -1.00
B_1    1.00 -1.00  1.00  1.00 -1.00
B_2    1.00 -1.00  1.00 -1.00  1.00
E      2.00  0.00 -2.00  0.00  0.00

     the symmetry operations in each class and the name of the first element:

     E        1
          identity                                               
     2C4      3    4
           90 deg rotation - cart. axis [-1,0,0]                 
     C2       2
          180 deg rotation - cart. axis [1,0,0]                  
     2s_v     5    6
          inv. 180 deg rotation - cart. axis [0,0,1]             
     2s_d     7    8
          inv. 180 deg rotation - cart. axis [0,1,1]             

   Cartesian axes

     site n.     atom                  positions (alat units)
         1           H   tau(   1) = (   0.0000000   0.0000000   0.0000000  )
         2           H   tau(   2) = (   0.0629909   0.0000000   0.0000000  )

   Crystallographic axes

     site n.     atom                  positions (cryst. coord.)
         1           H   tau(   1) = (  0.0000000  0.0000000  0.0000000  )
         2           H   tau(   2) = (  0.0629909  0.0000000  0.0000000  )

     number of k points=     1
                       cart. coord. in units 2pi/alat
        k(    1) = (  -0.5000000  -0.5000000  -0.5000000), wk =   2.0000000

                       cryst. coord.
        k(    1) = (  -0.5000000  -0.5000000  -0.5000000), wk =   2.0000000

     Dense  grid:   211657 G-vectors     FFT dimensions: (  75,  75,  75)

     Dynamical RAM for                 wfc:       0.81 MB

     Dynamical RAM for     wfc (w. buffer):       0.81 MB

     Dynamical RAM for           str. fact:       3.23 MB

     Dynamical RAM for           local pot:       0.00 MB

     Dynamical RAM for          nlocal pot:       0.81 MB

     Dynamical RAM for                qrad:       0.01 MB

     Dynamical RAM for          rho,v,vnew:      19.34 MB

     Dynamical RAM for               rhoin:       6.45 MB

     Dynamical RAM for            rho*nmix:      51.67 MB

     Dynamical RAM for           G-vectors:      13.73 MB

     Dynamical RAM for          h,s,v(r/c):       0.00 MB

     Dynamical RAM for          <psi|beta>:       0.00 MB

     Dynamical RAM for                 psi:       1.62 MB

     Dynamical RAM for                hpsi:       1.62 MB

     Dynamical RAM for                spsi:       1.62 MB

     Dynamical RAM for      wfcinit/wfcrot:       1.62 MB

     Dynamical RAM for           addusdens:      19.38 MB

     Dynamical RAM for          addusforce:      27.45 MB

     Estimated static dynamical RAM per process >      66.92 MB

     Estimated max dynamical RAM per process >     146.05 MB

     Initial potential from superposition of free atoms

     starting charge       2.0000, renormalised to       2.0000

     negative rho (up, down):  1.061E-01 0.000E+00
     Starting wfcs are    2 randomized atomic wfcs

     total cpu time spent up to now is        0.4 secs

     Self-consistent Calculation

     iteration #  1     ecut=    15.00 Ry     beta= 0.70
     Davidson diagonalization with overlap

---- Real-time Memory Report at c_bands before calling an iterative solver
           126 MiB given to the printing process from OS
             0 MiB allocation reported by mallinfo(arena+hblkhd)
           140 MiB available memory on the node where the printing process lives
------------------
     ethr =  1.00E-02,  avg # of iterations =  3.0

     negative rho (up, down):  1.400E-01 0.000E+00

     total cpu time spent up to now is        0.8 secs

     total energy              =      -2.25614392 Ry
     estimated scf accuracy    <       0.06006343 Ry

     iteration #  2     ecut=    15.00 Ry     beta= 0.70
     Davidson diagonalization with overlap

---- Real-time Memory Report at c_bands before calling an iterative solver
           155 MiB given to the printing process from OS
             0 MiB allocation reported by mallinfo(arena+hblkhd)
           116 MiB available memory on the node where the printing process lives
------------------
     ethr =  3.00E-03,  avg # of iterations =  1.0

     negative rho (up, down):  1.471E-01 0.000E+00

     total cpu time spent up to now is        1.2 secs

     total energy              =      -2.25555174 Ry
     estimated scf accuracy    <       0.00101573 Ry

     iteration #  3     ecut=    15.00 Ry     beta= 0.70
     Davidson diagonalization with overlap

---- Real-time Memory Report at c_bands before calling an iterative solver
           161 MiB given to the printing process from OS
             0 MiB allocation reported by mallinfo(arena+hblkhd)
           110 MiB available memory on the node where the printing process lives
------------------
     ethr =  5.08E-05,  avg # of iterations = 13.0

     negative rho (up, down):  1.463E-01 0.000E+00

     total cpu time spent up to now is        1.7 secs

     total energy              =      -2.25632692 Ry
     estimated scf accuracy    <       0.00002161 Ry

     iteration #  4     ecut=    15.00 Ry     beta= 0.70
     Davidson diagonalization with overlap

---- Real-time Memory Report at c_bands before calling an iterative solver
           168 MiB given to the printing process from OS
             0 MiB allocation reported by mallinfo(arena+hblkhd)
           104 MiB available memory on the node where the printing process lives
------------------
     ethr =  1.08E-06,  avg # of iterations =  7.0

     negative rho (up, down):  1.466E-01 0.000E+00

     total cpu time spent up to now is        2.3 secs

     total energy              =      -2.25619380 Ry
     estimated scf accuracy    <       0.00000261 Ry

     iteration #  5     ecut=    15.00 Ry     beta= 0.70
     Davidson diagonalization with overlap

---- Real-time Memory Report at c_bands before calling an iterative solver
           174 MiB given to the printing process from OS
             0 MiB allocation reported by mallinfo(arena+hblkhd)
            97 MiB available memory on the node where the printing process lives
------------------
     ethr =  1.31E-07,  avg # of iterations =  2.0

     negative rho (up, down):  1.465E-01 0.000E+00

     total cpu time spent up to now is        2.6 secs

     End of self-consistent calculation

          k =-0.5000-0.5000-0.5000 ( 26344 PWs)   bands (ev):

    -9.5935  -1.5635

     occupation numbers 
     1.0000   0.0000

     highest occupied, lowest unoccupied level (ev):    -9.5935   -1.5635

!    total energy              =      -2.25620079 Ry
     estimated scf accuracy    <          3.8E-09 Ry

     The total energy is the sum of the following terms:
     one-electron contribution =      -3.64482835 Ry
     hartree contribution      =       1.96473106 Ry
     xc contribution           =      -1.25670886 Ry
     ewald contribution        =       0.68060535 Ry

     convergence has been achieved in   5 iterations

     Forces acting on atoms (cartesian axes, Ry/au):

     atom    1 type  1   force =     0.20137289    0.00000000    0.00000000
     atom    2 type  1   force =    -0.20137289    0.00000000    0.00000000
     The non-local contrib.  to forces
     atom    1 type  1   force =     0.09412490    0.00000000    0.00000000
     atom    2 type  1   force =    -0.08787594    0.00000000    0.00000000
     The ionic contribution  to forces
     atom    1 type  1   force =    -0.55946374    0.00000000   -0.00000000
     atom    2 type  1   force =     0.55946374   -0.00000000   -0.00000000
     The local contribution  to forces
     atom    1 type  1   force =     0.66976504    0.00000000    0.00000000
     atom    2 type  1   force =    -0.66995702    0.00000000    0.00000000
     The core correction contribution to forces
     atom    1 type  1   force =     0.00000000    0.00000000    0.00000000
     atom    2 type  1   force =     0.00000000    0.00000000    0.00000000
     The Hubbard contrib.    to forces
     atom    1 type  1   force =     0.00000000    0.00000000    0.00000000
     atom    2 type  1   force =     0.00000000    0.00000000    0.00000000
     The SCF correction term to forces
     atom    1 type  1   force =     0.00000020   -0.00000000    0.00000000
     atom    2 type  1   force =     0.00004984   -0.00000000    0.00000000

     Total force =     0.284784     Total SCF correction =     0.000050

     BFGS Geometry Optimization
     Energy error            =      0.0E+00 Ry
     Gradient error          =      2.0E-01 Ry/Bohr

     number of scf cycles    =   1
     number of bfgs steps    =   0

     energy             new  =      -2.2562007909 Ry

     new trust radius        =       0.2013728887 bohr
     new conv_thr            =       0.0000000100 Ry


ATOMIC_POSITIONS (angstrom)
H             0.1065619436        0.0000000000        0.0000000000
H             0.8934380564        0.0000000000        0.0000000000



     Writing config-only to output data dir ./.save/
     NEW-OLD atomic charge density approx. for the potential

     negative rho (up, down):  1.299E-01 0.000E+00

     total cpu time spent up to now is        3.1 secs

     Self-consistent Calculation

     iteration #  1     ecut=    15.00 Ry     beta= 0.70
     Davidson diagonalization with overlap

---- Real-time Memory Report at c_bands before calling an iterative solver
           177 MiB given to the printing process from OS
             0 MiB allocation reported by mallinfo(arena+hblkhd)
           184 MiB available memory on the node where the printing process lives
------------------
     ethr =  1.00E-06,  avg # of iterations = 12.0

     negative rho (up, down):  1.599E-01 0.000E+00

     total cpu time spent up to now is        3.7 secs

     total energy              =      -2.30340399 Ry
     estimated scf accuracy    <       0.00779397 Ry

     iteration #  2     ecut=    15.00 Ry     beta= 0.70
     Davidson diagonalization with overlap

---- Real-time Memory Report at c_bands before calling an iterative solver
           177 MiB given to the printing process from OS
             0 MiB allocation reported by mallinfo(arena+hblkhd)
           127 MiB available memory on the node where the printing process lives
------------------
     ethr =  3.90E-04,  avg # of iterations =  1.0

     negative rho (up, down):  1.676E-01 0.000E+00

     total cpu time spent up to now is        4.0 secs

     total energy              =      -2.29951783 Ry
     estimated scf accuracy    <       0.00008567 Ry

     iteration #  3     ecut=    15.00 Ry     beta= 0.70
     Davidson diagonalization with overlap

---- Real-time Memory Report at c_bands before calling an iterative solver
           177 MiB given to the printing process from OS
             0 MiB allocation reported by mallinfo(arena+hblkhd)
           121 MiB available memory on the node where the printing process lives
------------------
     ethr =  4.28E-06,  avg # of iterations =  5.0

     negative rho (up, down):  1.694E-01 0.000E+00

     total cpu time spent up to now is        4.5 secs

     total energy              =      -2.29838730 Ry
     estimated scf accuracy    <       0.00000281 Ry

     iteration #  4     ecut=    15.00 Ry     beta= 0.70
     Davidson diagonalization with overlap

---- Real-time Memory Report at c_bands before calling an iterative solver
           177 MiB given to the printing process from OS
             0 MiB allocation reported by mallinfo(arena+hblkhd)
           114 MiB available memory on the node where the printing process lives
------------------
     ethr =  1.40E-07,  avg # of iterations =  2.0

     negative rho (up, down):  1.694E-01 0.000E+00

     total cpu time spent up to now is        4.9 secs

     total energy              =      -2.29840940 Ry
     estimated scf accuracy    <       0.00000015 Ry

     iteration #  5     ecut=    15.00 Ry     beta= 0.70
     Davidson diagonalization with overlap

---- Real-time Memory Report at c_bands before calling an iterative solver
           178 MiB given to the printing process from OS
             0 MiB allocation reported by mallinfo(arena+hblkhd)
           108 MiB available memory on the node where the printing process lives
------------------
     ethr =  7.56E-09,  avg # of iterations =  2.0

     negative rho (up, down):  1.694E-01 0.000E+00

     total cpu time spent up to now is        5.3 secs

     total energy              =      -2.29841414 Ry
     estimated scf accuracy    <       0.00000002 Ry

     iteration #  6     ecut=    15.00 Ry     beta= 0.70
     Davidson diagonalization with overlap

---- Real-time Memory Report at c_bands before calling an iterative solver
           185 MiB given to the printing process from OS
             0 MiB allocation reported by mallinfo(arena+hblkhd)
           102 MiB available memory on the node where the printing process lives
------------------
     ethr =  8.58E-10,  avg # of iterations =  4.0

     negative rho (up, down):  1.694E-01 0.000E+00

     total cpu time spent up to now is        5.7 secs

     total energy              =      -2.29842497 Ry
     estimated scf accuracy    <       0.00000001 Ry

     iteration #  7     ecut=    15.00 Ry     beta= 0.70
     Davidson diagonalization with overlap

---- Real-time Memory Report at c_bands before calling an iterative solver
           191 MiB given to the printing process from OS
             0 MiB allocation reported by mallinfo(arena+hblkhd)
           111 MiB available memory on the node where the printing process lives
------------------
     ethr =  6.49E-10,  avg # of iterations =  4.0

     negative rho (up, down):  1.694E-01 0.000E+00

     total cpu time spent up to now is        6.1 secs

     End of self-consistent calculation

          k =-0.5000-0.5000-0.5000 ( 26344 PWs)   bands (ev):

   -10.4579  -1.4662

     occupation numbers 
     1.0000   0.0000

     highest occupied, lowest unoccupied level (ev):   -10.4579   -1.4662

!    total energy              =      -2.29840547 Ry
     estimated scf accuracy    <          8.6E-09 Ry

     The total energy is the sum of the following terms:
     one-electron contribution =      -4.10926904 Ry
     hartree contribution      =       2.21087246 Ry
     xc contribution           =      -1.36705452 Ry
     ewald contribution        =       0.96704563 Ry

     convergence has been achieved in   7 iterations

     Forces acting on atoms (cartesian axes, Ry/au):

     atom    1 type  1   force =     0.06585873    0.00000000    0.00000000
     atom    2 type  1   force =    -0.06585873    0.00000000    0.00000000
     The non-local contrib.  to forces
     atom    1 type  1   force =     0.10026527    0.00000000    0.00000000
     atom    2 type  1   force =    -0.10139631    0.00000000    0.00000000
     The ionic contribution  to forces
     atom    1 type  1   force =    -0.90405814   -0.00000000   -0.00000000
     atom    2 type  1   force =     0.90405814    0.00000000   -0.00000000
     The local contribution  to forces
     atom    1 type  1   force =     0.86945293    0.00000000    0.00000000
     atom    2 type  1   force =    -0.86958221    0.00000000    0.00000000
     The core correction contribution to forces
     atom    1 type  1   force =     0.00000000    0.00000000    0.00000000
     atom    2 type  1   force =     0.00000000    0.00000000    0.00000000
     The Hubbard contrib.    to forces
     atom    1 type  1   force =     0.00000000    0.00000000    0.00000000
     atom    2 type  1   force =     0.00000000    0.00000000    0.00000000
     The SCF correction term to forces
     atom    1 type  1   force =    -0.00041883    0.00000000   -0.00000000
     atom    2 type  1   force =     0.00044416   -0.00000000   -0.00000000

     Total force =     0.093138     Total SCF correction =     0.000610
     Energy error            =      4.2E-02 Ry
     Gradient error          =      6.6E-02 Ry/Bohr

     number of scf cycles    =   2
     number of bfgs steps    =   1

     energy             old  =      -2.2562007909 Ry
     energy             new  =      -2.2984054685 Ry

     CASE: energy            _new < energy            _old

     new trust radius        =       0.0978655054 bohr
     new conv_thr            =       0.0000000066 Ry


ATOMIC_POSITIONS (angstrom)
H             0.1583501388        0.0000000000        0.0000000000
H             0.8416498612        0.0000000000        0.0000000000



     Writing config-only to output data dir ./.save/
     NEW-OLD atomic charge density approx. for the potential

     negative rho (up, down):  1.656E-01 0.000E+00

     total cpu time spent up to now is        6.5 secs

     Self-consistent Calculation

     iteration #  1     ecut=    15.00 Ry     beta= 0.70
     Davidson diagonalization with overlap

---- Real-time Memory Report at c_bands before calling an iterative solver
           191 MiB given to the printing process from OS
             0 MiB allocation reported by mallinfo(arena+hblkhd)
           200 MiB available memory on the node where the printing process lives
------------------
     c_bands:  1 eigenvalues not converged
     ethr =  1.00E-06,  avg # of iterations = 20.0

     negative rho (up, down):  1.868E-01 0.000E+00

     total cpu time spent up to now is        7.2 secs

     total energy              =      -2.29223455 Ry
     estimated scf accuracy    <       0.00300131 Ry

     iteration #  2     ecut=    15.00 Ry     beta= 0.70
     Davidson diagonalization with overlap

---- Real-time Memory Report at c_bands before calling an iterative solver
           191 MiB given to the printing process from OS
             0 MiB allocation reported by mallinfo(arena+hblkhd)
           143 MiB available memory on the node where the printing process lives
------------------
     ethr =  1.50E-04,  avg # of iterations =  1.0

     negative rho (up, down):  1.924E-01 0.000E+00

     total cpu time spent up to now is        7.5 secs

     total energy              =      -2.28933880 Ry
     estimated scf accuracy    <       0.00003172 Ry

     iteration #  3     ecut=    15.00 Ry     beta= 0.70
     Davidson diagonalization with overlap

---- Real-time Memory Report at c_bands before calling an iterative solver
           191 MiB given to the printing process from OS
             0 MiB allocation reported by mallinfo(arena+hblkhd)
           136 MiB available memory on the node where the printing process lives
------------------
     ethr =  1.59E-06,  avg # of iterations =  5.0

     negative rho (up, down):  1.940E-01 0.000E+00

     total cpu time spent up to now is        7.9 secs

     total energy              =      -2.28839626 Ry
     estimated scf accuracy    <       0.00000114 Ry

     iteration #  4     ecut=    15.00 Ry     beta= 0.70
     Davidson diagonalization with overlap

---- Real-time Memory Report at c_bands before calling an iterative solver
           191 MiB given to the printing process from OS
             0 MiB allocation reported by mallinfo(arena+hblkhd)
           130 MiB available memory on the node where the printing process lives
------------------
     ethr =  5.69E-08,  avg # of iterations =  3.0

     negative rho (up, down):  1.940E-01 0.000E+00

     total cpu time spent up to now is        8.3 secs

     total energy              =      -2.28841635 Ry
     estimated scf accuracy    <       0.00000050 Ry

     iteration #  5     ecut=    15.00 Ry     beta= 0.70
     Davidson diagonalization with overlap

---- Real-time Memory Report at c_bands before calling an iterative solver
           191 MiB given to the printing process from OS
             0 MiB allocation reported by mallinfo(arena+hblkhd)
           123 MiB available memory on the node where the printing process lives
------------------
     ethr =  2.51E-08,  avg # of iterations =  2.0

     negative rho (up, down):  1.939E-01 0.000E+00

     total cpu time spent up to now is        8.7 secs

     total energy              =      -2.28843889 Ry
     estimated scf accuracy    <       0.00000006 Ry

     iteration #  6     ecut=    15.00 Ry     beta= 0.70
     Davidson diagonalization with overlap

---- Real-time Memory Report at c_bands before calling an iterative solver
           191 MiB given to the printing process from OS
             0 MiB allocation reported by mallinfo(arena+hblkhd)
           117 MiB available memory on the node where the printing process lives
------------------
     ethr =  3.17E-09,  avg # of iterations =  3.0

     negative rho (up, down):  1.939E-01 0.000E+00

     total cpu time spent up to now is        9.1 secs

     total energy              =      -2.28846627 Ry
     estimated scf accuracy    <       0.00000002 Ry

     iteration #  7     ecut=    15.00 Ry     beta= 0.70
     Davidson diagonalization with overlap

---- Real-time Memory Report at c_bands before calling an iterative solver
           191 MiB given to the printing process from OS
             0 MiB allocation reported by mallinfo(arena+hblkhd)
           110 MiB available memory on the node where the printing process lives
------------------
     ethr =  9.31E-10,  avg # of iterations =  3.0

     negative rho (up, down):  1.939E-01 0.000E+00

     total cpu time spent up to now is        9.5 secs

     total energy              =      -2.28844975 Ry
     estimated scf accuracy    <          7.8E-09 Ry

     iteration #  8     ecut=    15.00 Ry     beta= 0.70
     Davidson diagonalization with overlap

---- Real-time Memory Report at c_bands before calling an iterative solver
           197 MiB given to the printing process from OS
             0 MiB allocation reported by mallinfo(arena+hblkhd)
           104 MiB available memory on the node where the printing process lives
------------------
     ethr =  3.89E-10,  avg # of iterations =  4.0

     negative rho (up, down):  1.939E-01 0.000E+00

     total cpu time spent up to now is        9.9 secs

     total energy              =      -2.28844815 Ry
     estimated scf accuracy    <       0.00000001 Ry

     iteration #  9     ecut=    15.00 Ry     beta= 0.70
     Davidson diagonalization with overlap

---- Real-time Memory Report at c_bands before calling an iterative solver
           204 MiB given to the printing process from OS
             0 MiB allocation reported by mallinfo(arena+hblkhd)
            97 MiB available memory on the node where the printing process lives
------------------
     ethr =  3.89E-10,  avg # of iterations =  2.0

     negative rho (up, down):  1.939E-01 0.000E+00

     total cpu time spent up to now is       10.3 secs

     total energy              =      -2.28847741 Ry
     estimated scf accuracy    <       0.00000002 Ry

     iteration # 10     ecut=    15.00 Ry     beta= 0.70
     Davidson diagonalization with overlap

---- Real-time Memory Report at c_bands before calling an iterative solver
           210 MiB given to the printing process from OS
             0 MiB allocation reported by mallinfo(arena+hblkhd)
           110 MiB available memory on the node where the printing process lives
------------------
     ethr =  3.89E-10,  avg # of iterations =  4.0

     negative rho (up, down):  1.939E-01 0.000E+00

     total cpu time spent up to now is       10.7 secs

     total energy              =      -2.28847554 Ry
     estimated scf accuracy    <       0.00000002 Ry

     iteration # 11     ecut=    15.00 Ry     beta= 0.70
     Davidson diagonalization with overlap

---- Real-time Memory Report at c_bands before calling an iterative solver
           210 MiB given to the printing process from OS
             0 MiB allocation reported by mallinfo(arena+hblkhd)
           110 MiB available memory on the node where the printing process lives
------------------
     ethr =  3.89E-10,  avg # of iterations =  2.0

     negative rho (up, down):  1.939E-01 0.000E+00

     total cpu time spent up to now is       11.1 secs

     total energy              =      -2.28844862 Ry
     estimated scf accuracy    <       0.00000001 Ry

     iteration # 12     ecut=    15.00 Ry     beta= 0.70
     Davidson diagonalization with overlap

---- Real-time Memory Report at c_bands before calling an iterative solver
           210 MiB given to the printing process from OS
             0 MiB allocation reported by mallinfo(arena+hblkhd)
           109 MiB available memory on the node where the printing process lives
------------------
     ethr =  3.89E-10,  avg # of iterations =  4.0

     negative rho (up, down):  1.939E-01 0.000E+00

     total cpu time spent up to now is       11.5 secs

     End of self-consistent calculation

          k =-0.5000-0.5000-0.5000 ( 26344 PWs)   bands (ev):

   -11.0307  -1.4563

     occupation numbers 
     1.0000   0.0000

     highest occupied, lowest unoccupied level (ev):   -11.0307   -1.4563

!    total energy              =      -2.28847836 Ry
     estimated scf accuracy    <          1.1E-09 Ry

     The total energy is the sum of the following terms:
     one-electron contribution =      -4.37876332 Ry
     hartree contribution      =       2.35230258 Ry
     xc contribution           =      -1.43285819 Ry
     ewald contribution        =       1.17084057 Ry

     convergence has been achieved in  12 iterations

     Forces acting on atoms (cartesian axes, Ry/au):

     atom    1 type  1   force =    -0.03256163    0.00000000    0.00000000
     atom    2 type  1   force =     0.03256163    0.00000000    0.00000000
     The non-local contrib.  to forces
     atom    1 type  1   force =     0.19531627    0.00000000    0.00000000
     atom    2 type  1   force =    -0.19586901    0.00000000    0.00000000
     The ionic contribution  to forces
     atom    1 type  1   force =    -1.19912340    0.00000000   -0.00000000
     atom    2 type  1   force =     1.19912340    0.00000000   -0.00000000
     The local contribution  to forces
     atom    1 type  1   force =     0.97043036    0.00000000    0.00000000
     atom    2 type  1   force =    -0.97145998    0.00000000    0.00000000
     The core correction contribution to forces
     atom    1 type  1   force =     0.00000000    0.00000000    0.00000000
     atom    2 type  1   force =     0.00000000    0.00000000    0.00000000
     The Hubbard contrib.    to forces
     atom    1 type  1   force =     0.00000000    0.00000000    0.00000000
     atom    2 type  1   force =     0.00000000    0.00000000    0.00000000
     The SCF correction term to forces
     atom    1 type  1   force =    -0.00026457    0.00000000   -0.00000000
     atom    2 type  1   force =    -0.00031251    0.00000000   -0.00000000

     Total force =     0.046049     Total SCF correction =     0.000409
     Energy error            =      9.9E-03 Ry
     Gradient error          =      3.3E-02 Ry/Bohr

     number of scf cycles    =   3
     number of bfgs steps    =   2

     energy             old  =      -2.2984054685 Ry
     energy             new  =      -2.2884783609 Ry

     CASE: energy            _new > energy            _old

     new trust radius        =       0.0276439881 bohr
     new conv_thr            =       0.0000000066 Ry


ATOMIC_POSITIONS (angstrom)
H             0.1211905121        0.0000000000        0.0000000000
H             0.8788094879        0.0000000000        0.0000000000



     Writing config-only to output data dir ./.save/
     NEW-OLD atomic charge density approx. for the potential

     negative rho (up, down):  1.876E-01 0.000E+00

     total cpu time spent up to now is       11.9 secs

     Self-consistent Calculation

     iteration #  1     ecut=    15.00 Ry     beta= 0.70
     Davidson diagonalization with overlap

---- Real-time Memory Report at c_bands before calling an iterative solver
           210 MiB given to the printing process from OS
             0 MiB allocation reported by mallinfo(arena+hblkhd)
           219 MiB available memory on the node where the printing process lives
------------------
     ethr =  1.00E-06,  avg # of iterations =  7.0

     negative rho (up, down):  1.751E-01 0.000E+00

     total cpu time spent up to now is       12.4 secs

     total energy              =      -2.29750638 Ry
     estimated scf accuracy    <       0.00191261 Ry

     iteration #  2     ecut=    15.00 Ry     beta= 0.70
     Davidson diagonalization with overlap

---- Real-time Memory Report at c_bands before calling an iterative solver
           210 MiB given to the printing process from OS
             0 MiB allocation reported by mallinfo(arena+hblkhd)
           161 MiB available memory on the node where the printing process lives
------------------
     ethr =  9.56E-05,  avg # of iterations =  2.0

     negative rho (up, down):  1.740E-01 0.000E+00

     total cpu time spent up to now is       12.7 secs

     total energy              =      -2.29883602 Ry
     estimated scf accuracy    <       0.00001303 Ry

     iteration #  3     ecut=    15.00 Ry     beta= 0.70
     Davidson diagonalization with overlap

---- Real-time Memory Report at c_bands before calling an iterative solver
           210 MiB given to the printing process from OS
             0 MiB allocation reported by mallinfo(arena+hblkhd)
           155 MiB available memory on the node where the printing process lives
------------------
     ethr =  6.52E-07,  avg # of iterations =  5.0

     negative rho (up, down):  1.737E-01 0.000E+00

     total cpu time spent up to now is       13.2 secs

     total energy              =      -2.29906448 Ry
     estimated scf accuracy    <       0.00000138 Ry

     iteration #  4     ecut=    15.00 Ry     beta= 0.70
     Davidson diagonalization with overlap

---- Real-time Memory Report at c_bands before calling an iterative solver
           210 MiB given to the printing process from OS
             0 MiB allocation reported by mallinfo(arena+hblkhd)
           148 MiB available memory on the node where the printing process lives
------------------
     ethr =  6.90E-08,  avg # of iterations =  3.0

     negative rho (up, down):  1.737E-01 0.000E+00

     total cpu time spent up to now is       13.6 secs

     total energy              =      -2.29908260 Ry
     estimated scf accuracy    <       0.00000009 Ry

     iteration #  5     ecut=    15.00 Ry     beta= 0.70
     Davidson diagonalization with overlap

---- Real-time Memory Report at c_bands before calling an iterative solver
           210 MiB given to the printing process from OS
             0 MiB allocation reported by mallinfo(arena+hblkhd)
           142 MiB available memory on the node where the printing process lives
------------------
     ethr =  4.45E-09,  avg # of iterations =  3.0

     negative rho (up, down):  1.737E-01 0.000E+00

     total cpu time spent up to now is       13.9 secs

     End of self-consistent calculation

          k =-0.5000-0.5000-0.5000 ( 26344 PWs)   bands (ev):

   -10.6083  -1.4829

     occupation numbers 
     1.0000   0.0000

     highest occupied, lowest unoccupied level (ev):   -10.6083   -1.4829

!    total energy              =      -2.29909028 Ry
     estimated scf accuracy    <          2.6E-09 Ry

     The total energy is the sum of the following terms:
     one-electron contribution =      -4.18199483 Ry
     hartree contribution      =       2.24854765 Ry
     xc contribution           =      -1.38460397 Ry
     ewald contribution        =       1.01896087 Ry

     convergence has been achieved in   5 iterations

     Forces acting on atoms (cartesian axes, Ry/au):

     atom    1 type  1   force =     0.04372004    0.00000000    0.00000000
     atom    2 type  1   force =    -0.04372004    0.00000000    0.00000000
     The non-local contrib.  to forces
     atom    1 type  1   force =     0.12052291    0.00000000    0.00000000
     atom    2 type  1   force =    -0.12080483    0.00000000    0.00000000
     The ionic contribution  to forces
     atom    1 type  1   force =    -0.97528486   -0.00000000   -0.00000000
     atom    2 type  1   force =     0.97528486    0.00000000   -0.00000000
     The local contribution  to forces
     atom    1 type  1   force =     0.89840658    0.00000000    0.00000000
     atom    2 type  1   force =    -0.89835390    0.00000000    0.00000000
     The core correction contribution to forces
     atom    1 type  1   force =     0.00000000    0.00000000    0.00000000
     atom    2 type  1   force =     0.00000000    0.00000000    0.00000000
     The Hubbard contrib.    to forces
     atom    1 type  1   force =     0.00000000    0.00000000    0.00000000
     atom    2 type  1   force =     0.00000000    0.00000000    0.00000000
     The SCF correction term to forces
     atom    1 type  1   force =     0.00025056    0.00000000    0.00000000
     atom    2 type  1   force =     0.00032898   -0.00000000    0.00000000

     Total force =     0.061829     Total SCF correction =     0.000414
     Energy error            =      6.8E-04 Ry
     Gradient error          =      4.4E-02 Ry/Bohr

     number of scf cycles    =   4
     number of bfgs steps    =   2

     energy             old  =      -2.2984054685 Ry
     energy             new  =      -2.2990902819 Ry

     CASE: energy            _new < energy            _old

     new trust radius        =       0.0414659821 bohr
     new conv_thr            =       0.0000000007 Ry


ATOMIC_POSITIONS (angstrom)
H             0.1431333648        0.0000000000        0.0000000000
H             0.8568666352        0.0000000000        0.0000000000



     Writing config-only to output data dir ./.save/
     NEW-OLD atomic charge density approx. for the potential

     negative rho (up, down):  1.732E-01 0.000E+00

     total cpu time spent up to now is       14.3 secs

     Self-consistent Calculation

     iteration #  1     ecut=    15.00 Ry     beta= 0.70
     Davidson diagonalization with overlap

---- Real-time Memory Report at c_bands before calling an iterative solver
           210 MiB given to the printing process from OS
             0 MiB allocation reported by mallinfo(arena+hblkhd)
           219 MiB available memory on the node where the printing process lives
------------------
     ethr =  1.00E-06,  avg # of iterations = 19.0

     negative rho (up, down):  1.812E-01 0.000E+00

     total cpu time spent up to now is       15.0 secs

     total energy              =      -2.29649103 Ry
     estimated scf accuracy    <       0.00052539 Ry

     iteration #  2     ecut=    15.00 Ry     beta= 0.70
     Davidson diagonalization with overlap

---- Real-time Memory Report at c_bands before calling an iterative solver
           210 MiB given to the printing process from OS
             0 MiB allocation reported by mallinfo(arena+hblkhd)
           161 MiB available memory on the node where the printing process lives
------------------
     ethr =  2.63E-05,  avg # of iterations =  2.0

     negative rho (up, down):  1.832E-01 0.000E+00

     total cpu time spent up to now is       15.3 secs

     total energy              =      -2.29539368 Ry
     estimated scf accuracy    <       0.00000610 Ry

     iteration #  3     ecut=    15.00 Ry     beta= 0.70
     Davidson diagonalization with overlap

---- Real-time Memory Report at c_bands before calling an iterative solver
           210 MiB given to the printing process from OS
             0 MiB allocation reported by mallinfo(arena+hblkhd)
           155 MiB available memory on the node where the printing process lives
------------------
     ethr =  3.05E-07,  avg # of iterations =  5.0

     negative rho (up, down):  1.836E-01 0.000E+00

     total cpu time spent up to now is       15.8 secs

     total energy              =      -2.29511469 Ry
     estimated scf accuracy    <       0.00000016 Ry

     iteration #  4     ecut=    15.00 Ry     beta= 0.70
     Davidson diagonalization with overlap

---- Real-time Memory Report at c_bands before calling an iterative solver
           210 MiB given to the printing process from OS
             0 MiB allocation reported by mallinfo(arena+hblkhd)
           148 MiB available memory on the node where the printing process lives
------------------
     ethr =  8.03E-09,  avg # of iterations =  3.0

     negative rho (up, down):  1.837E-01 0.000E+00

     total cpu time spent up to now is       16.1 secs

     total energy              =      -2.29507548 Ry
     estimated scf accuracy    <       0.00000008 Ry

     iteration #  5     ecut=    15.00 Ry     beta= 0.70
     Davidson diagonalization with overlap

---- Real-time Memory Report at c_bands before calling an iterative solver
           210 MiB given to the printing process from OS
             0 MiB allocation reported by mallinfo(arena+hblkhd)
           142 MiB available memory on the node where the printing process lives
------------------
     ethr =  3.86E-09,  avg # of iterations =  3.0

     negative rho (up, down):  1.836E-01 0.000E+00

     total cpu time spent up to now is       16.5 secs

     total energy              =      -2.29508152 Ry
     estimated scf accuracy    <       0.00000002 Ry

     iteration #  6     ecut=    15.00 Ry     beta= 0.70
     Davidson diagonalization with overlap

---- Real-time Memory Report at c_bands before calling an iterative solver
           210 MiB given to the printing process from OS
             0 MiB allocation reported by mallinfo(arena+hblkhd)
           136 MiB available memory on the node where the printing process lives
------------------
     ethr =  1.20E-09,  avg # of iterations =  3.0

     negative rho (up, down):  1.837E-01 0.000E+00

     total cpu time spent up to now is       16.9 secs

     total energy              =      -2.29507883 Ry
     estimated scf accuracy    <       0.00000006 Ry

     iteration #  7     ecut=    15.00 Ry     beta= 0.70
     Davidson diagonalization with overlap

---- Real-time Memory Report at c_bands before calling an iterative solver
           210 MiB given to the printing process from OS
             0 MiB allocation reported by mallinfo(arena+hblkhd)
           129 MiB available memory on the node where the printing process lives
------------------
     ethr =  1.20E-09,  avg # of iterations =  3.0

     negative rho (up, down):  1.837E-01 0.000E+00

     total cpu time spent up to now is       17.3 secs

     total energy              =      -2.29507489 Ry
     estimated scf accuracy    <       0.00000004 Ry

     iteration #  8     ecut=    15.00 Ry     beta= 0.70
     Davidson diagonalization with overlap

---- Real-time Memory Report at c_bands before calling an iterative solver
           210 MiB given to the printing process from OS
             0 MiB allocation reported by mallinfo(arena+hblkhd)
           123 MiB available memory on the node where the printing process lives
------------------
     ethr =  1.20E-09,  avg # of iterations =  3.0

     negative rho (up, down):  1.837E-01 0.000E+00

     total cpu time spent up to now is       17.7 secs

     total energy              =      -2.29507969 Ry
     estimated scf accuracy    <       0.00000004 Ry

     iteration #  9     ecut=    15.00 Ry     beta= 0.70
     Davidson diagonalization with overlap

---- Real-time Memory Report at c_bands before calling an iterative solver
           210 MiB given to the printing process from OS
             0 MiB allocation reported by mallinfo(arena+hblkhd)
           116 MiB available memory on the node where the printing process lives
------------------
     ethr =  1.20E-09,  avg # of iterations =  2.0

     negative rho (up, down):  1.837E-01 0.000E+00

     total cpu time spent up to now is       18.1 secs

     total energy              =      -2.29507186 Ry
     estimated scf accuracy    <       0.00000004 Ry

     iteration # 10     ecut=    15.00 Ry     beta= 0.70
     Davidson diagonalization with overlap

---- Real-time Memory Report at c_bands before calling an iterative solver
           210 MiB given to the printing process from OS
             0 MiB allocation reported by mallinfo(arena+hblkhd)
           110 MiB available memory on the node where the printing process lives
------------------
     ethr =  1.20E-09,  avg # of iterations =  3.0

     negative rho (up, down):  1.837E-01 0.000E+00

     total cpu time spent up to now is       18.5 secs

     total energy              =      -2.29506081 Ry
     estimated scf accuracy    <       0.00000010 Ry

     iteration # 11     ecut=    15.00 Ry     beta= 0.70
     Davidson diagonalization with overlap

---- Real-time Memory Report at c_bands before calling an iterative solver
           210 MiB given to the printing process from OS
             0 MiB allocation reported by mallinfo(arena+hblkhd)
           110 MiB available memory on the node where the printing process lives
------------------
     ethr =  1.20E-09,  avg # of iterations =  3.0

     negative rho (up, down):  1.837E-01 0.000E+00

     total cpu time spent up to now is       18.9 secs

     total energy              =      -2.29506065 Ry
     estimated scf accuracy    <       0.00000010 Ry

     iteration # 12     ecut=    15.00 Ry     beta= 0.70
     Davidson diagonalization with overlap

---- Real-time Memory Report at c_bands before calling an iterative solver
           210 MiB given to the printing process from OS
             0 MiB allocation reported by mallinfo(arena+hblkhd)
           110 MiB available memory on the node where the printing process lives
------------------
     ethr =  1.20E-09,  avg # of iterations =  2.0

     negative rho (up, down):  1.837E-01 0.000E+00

     total cpu time spent up to now is       19.3 secs

     total energy              =      -2.29506043 Ry
     estimated scf accuracy    <       0.00000011 Ry

     iteration # 13     ecut=    15.00 Ry     beta= 0.70
     Davidson diagonalization with overlap

---- Real-time Memory Report at c_bands before calling an iterative solver
           210 MiB given to the printing process from OS
             0 MiB allocation reported by mallinfo(arena+hblkhd)
           110 MiB available memory on the node where the printing process lives
------------------
     ethr =  1.20E-09,  avg # of iterations =  1.0

     negative rho (up, down):  1.837E-01 0.000E+00

     total cpu time spent up to now is       19.7 secs

     total energy              =      -2.29507168 Ry
     estimated scf accuracy    <       0.00000011 Ry

     iteration # 14     ecut=    15.00 Ry     beta= 0.70
     Davidson diagonalization with overlap

---- Real-time Memory Report at c_bands before calling an iterative solver
           210 MiB given to the printing process from OS
             0 MiB allocation reported by mallinfo(arena+hblkhd)
           110 MiB available memory on the node where the printing process lives
------------------
     ethr =  1.20E-09,  avg # of iterations =  3.0

     negative rho (up, down):  1.837E-01 0.000E+00

     total cpu time spent up to now is       20.1 secs

     total energy              =      -2.29504528 Ry
     estimated scf accuracy    <       0.00000016 Ry

     iteration # 15     ecut=    15.00 Ry     beta= 0.70
     Davidson diagonalization with overlap

---- Real-time Memory Report at c_bands before calling an iterative solver
           210 MiB given to the printing process from OS
             0 MiB allocation reported by mallinfo(arena+hblkhd)
           110 MiB available memory on the node where the printing process lives
------------------
     ethr =  1.20E-09,  avg # of iterations =  3.0

     negative rho (up, down):  1.836E-01 0.000E+00

     total cpu time spent up to now is       20.5 secs

     total energy              =      -2.29511346 Ry
     estimated scf accuracy    <       0.00000022 Ry

     iteration # 16     ecut=    15.00 Ry     beta= 0.70
     Davidson diagonalization with overlap

---- Real-time Memory Report at c_bands before calling an iterative solver
           210 MiB given to the printing process from OS
             0 MiB allocation reported by mallinfo(arena+hblkhd)
           110 MiB available memory on the node where the printing process lives
------------------
     ethr =  1.20E-09,  avg # of iterations =  4.0

     negative rho (up, down):  1.836E-01 0.000E+00

     total cpu time spent up to now is       21.0 secs

     total energy              =      -2.29510839 Ry
     estimated scf accuracy    <       0.00000004 Ry

     iteration # 17     ecut=    15.00 Ry     beta= 0.70
     Davidson diagonalization with overlap

---- Real-time Memory Report at c_bands before calling an iterative solver
           210 MiB given to the printing process from OS
             0 MiB allocation reported by mallinfo(arena+hblkhd)
           110 MiB available memory on the node where the printing process lives
------------------
     ethr =  1.20E-09,  avg # of iterations =  4.0

     negative rho (up, down):  1.836E-01 0.000E+00

     total cpu time spent up to now is       21.4 secs

     total energy              =      -2.29508750 Ry
     estimated scf accuracy    <       0.00000005 Ry

     iteration # 18     ecut=    15.00 Ry     beta= 0.70
     Davidson diagonalization with overlap

---- Real-time Memory Report at c_bands before calling an iterative solver
           210 MiB given to the printing process from OS
             0 MiB allocation reported by mallinfo(arena+hblkhd)
           110 MiB available memory on the node where the printing process lives
------------------
     ethr =  1.20E-09,  avg # of iterations =  4.0

     negative rho (up, down):  1.837E-01 0.000E+00

     total cpu time spent up to now is       21.8 secs

     total energy              =      -2.29508331 Ry
     estimated scf accuracy    <       0.00000009 Ry

     iteration # 19     ecut=    15.00 Ry     beta= 0.70
     Davidson diagonalization with overlap

---- Real-time Memory Report at c_bands before calling an iterative solver
           210 MiB given to the printing process from OS
             0 MiB allocation reported by mallinfo(arena+hblkhd)
           110 MiB available memory on the node where the printing process lives
------------------
     ethr =  1.20E-09,  avg # of iterations =  3.0

     negative rho (up, down):  1.837E-01 0.000E+00

     total cpu time spent up to now is       22.2 secs

     total energy              =      -2.29508473 Ry
     estimated scf accuracy    <       0.00000008 Ry

     iteration # 20     ecut=    15.00 Ry     beta= 0.70
     Davidson diagonalization with overlap

---- Real-time Memory Report at c_bands before calling an iterative solver
           210 MiB given to the printing process from OS
             0 MiB allocation reported by mallinfo(arena+hblkhd)
           110 MiB available memory on the node where the printing process lives
------------------
     ethr =  1.20E-09,  avg # of iterations =  2.0

     negative rho (up, down):  1.836E-01 0.000E+00

     total cpu time spent up to now is       22.6 secs

     total energy              =      -2.29510550 Ry
     estimated scf accuracy    <       0.00000008 Ry

     iteration # 21     ecut=    15.00 Ry     beta= 0.70
     Davidson diagonalization with overlap

---- Real-time Memory Report at c_bands before calling an iterative solver
           210 MiB given to the printing process from OS
             0 MiB allocation reported by mallinfo(arena+hblkhd)
           110 MiB available memory on the node where the printing process lives
------------------
     ethr =  1.20E-09,  avg # of iterations =  4.0

     negative rho (up, down):  1.836E-01 0.000E+00

     total cpu time spent up to now is       23.1 secs

     total energy              =      -2.29511648 Ry
     estimated scf accuracy    <       0.00000005 Ry

     iteration # 22     ecut=    15.00 Ry     beta= 0.70
     Davidson diagonalization with overlap

---- Real-time Memory Report at c_bands before calling an iterative solver
           210 MiB given to the printing process from OS
             0 MiB allocation reported by mallinfo(arena+hblkhd)
           110 MiB available memory on the node where the printing process lives
------------------
     ethr =  1.20E-09,  avg # of iterations =  3.0

     negative rho (up, down):  1.836E-01 0.000E+00

     total cpu time spent up to now is       23.5 secs

     total energy              =      -2.29511753 Ry
     estimated scf accuracy    <       0.00000006 Ry

     iteration # 23     ecut=    15.00 Ry     beta= 0.70
     Davidson diagonalization with overlap

---- Real-time Memory Report at c_bands before calling an iterative solver
           210 MiB given to the printing process from OS
             0 MiB allocation reported by mallinfo(arena+hblkhd)
           110 MiB available memory on the node where the printing process lives
------------------
     ethr =  1.20E-09,  avg # of iterations =  1.0

     negative rho (up, down):  1.836E-01 0.000E+00

     total cpu time spent up to now is       23.9 secs

     total energy              =      -2.29511397 Ry
     estimated scf accuracy    <       0.00000006 Ry

     iteration # 24     ecut=    15.00 Ry     beta= 0.70
     Davidson diagonalization with overlap

---- Real-time Memory Report at c_bands before calling an iterative solver
           210 MiB given to the printing process from OS
             0 MiB allocation reported by mallinfo(arena+hblkhd)
           110 MiB available memory on the node where the printing process lives
------------------
     ethr =  1.20E-09,  avg # of iterations =  3.0

     negative rho (up, down):  1.836E-01 0.000E+00

     total cpu time spent up to now is       24.3 secs

     total energy              =      -2.29508899 Ry
     estimated scf accuracy    <       0.00000004 Ry

     iteration # 25     ecut=    15.00 Ry     beta= 0.70
     Davidson diagonalization with overlap

---- Real-time Memory Report at c_bands before calling an iterative solver
           210 MiB given to the printing process from OS
             0 MiB allocation reported by mallinfo(arena+hblkhd)
           110 MiB available memory on the node where the printing process lives
------------------
     ethr =  1.20E-09,  avg # of iterations =  4.0

     negative rho (up, down):  1.836E-01 0.000E+00

     total cpu time spent up to now is       24.7 secs

     total energy              =      -2.29510906 Ry
     estimated scf accuracy    <       0.00000006 Ry

     iteration # 26     ecut=    15.00 Ry     beta= 0.70
     Davidson diagonalization with overlap

---- Real-time Memory Report at c_bands before calling an iterative solver
           210 MiB given to the printing process from OS
             0 MiB allocation reported by mallinfo(arena+hblkhd)
           110 MiB available memory on the node where the printing process lives
------------------
     ethr =  1.20E-09,  avg # of iterations =  4.0

     negative rho (up, down):  1.837E-01 0.000E+00

     total cpu time spent up to now is       25.1 secs

     total energy              =      -2.29507845 Ry
     estimated scf accuracy    <       0.00000006 Ry

     iteration # 27     ecut=    15.00 Ry     beta= 0.70
     Davidson diagonalization with overlap

---- Real-time Memory Report at c_bands before calling an iterative solver
           210 MiB given to the printing process from OS
             0 MiB allocation reported by mallinfo(arena+hblkhd)
           110 MiB available memory on the node where the printing process lives
------------------
     ethr =  1.20E-09,  avg # of iterations =  4.0

     negative rho (up, down):  1.837E-01 0.000E+00

     total cpu time spent up to now is       25.6 secs

     total energy              =      -2.29508141 Ry
     estimated scf accuracy    <       0.00000007 Ry

     iteration # 28     ecut=    15.00 Ry     beta= 0.70
     Davidson diagonalization with overlap

---- Real-time Memory Report at c_bands before calling an iterative solver
           210 MiB given to the printing process from OS
             0 MiB allocation reported by mallinfo(arena+hblkhd)
           110 MiB available memory on the node where the printing process lives
------------------
     ethr =  1.20E-09,  avg # of iterations =  3.0

     negative rho (up, down):  1.837E-01 0.000E+00

     total cpu time spent up to now is       26.0 secs

     total energy              =      -2.29507484 Ry
     estimated scf accuracy    <       0.00000012 Ry

     iteration # 29     ecut=    15.00 Ry     beta= 0.70
     Davidson diagonalization with overlap

---- Real-time Memory Report at c_bands before calling an iterative solver
           210 MiB given to the printing process from OS
             0 MiB allocation reported by mallinfo(arena+hblkhd)
           110 MiB available memory on the node where the printing process lives
------------------
     ethr =  1.20E-09,  avg # of iterations =  2.0

     negative rho (up, down):  1.837E-01 0.000E+00

     total cpu time spent up to now is       26.4 secs

     total energy              =      -2.29506178 Ry
     estimated scf accuracy    <       0.00000011 Ry

     iteration # 30     ecut=    15.00 Ry     beta= 0.70
     Davidson diagonalization with overlap

---- Real-time Memory Report at c_bands before calling an iterative solver
           210 MiB given to the printing process from OS
             0 MiB allocation reported by mallinfo(arena+hblkhd)
           110 MiB available memory on the node where the printing process lives
------------------
     ethr =  1.20E-09,  avg # of iterations =  3.0

     negative rho (up, down):  1.837E-01 0.000E+00

     total cpu time spent up to now is       26.8 secs

     total energy              =      -2.29506215 Ry
     estimated scf accuracy    <       0.00000020 Ry

     iteration # 31     ecut=    15.00 Ry     beta= 0.70
     Davidson diagonalization with overlap

---- Real-time Memory Report at c_bands before calling an iterative solver
           210 MiB given to the printing process from OS
             0 MiB allocation reported by mallinfo(arena+hblkhd)
           110 MiB available memory on the node where the printing process lives
------------------
     ethr =  1.20E-09,  avg # of iterations =  2.0

     negative rho (up, down):  1.837E-01 0.000E+00

     total cpu time spent up to now is       27.2 secs

     total energy              =      -2.29507566 Ry
     estimated scf accuracy    <       0.00000022 Ry

     iteration # 32     ecut=    15.00 Ry     beta= 0.70
     Davidson diagonalization with overlap

---- Real-time Memory Report at c_bands before calling an iterative solver
           210 MiB given to the printing process from OS
             0 MiB allocation reported by mallinfo(arena+hblkhd)
           110 MiB available memory on the node where the printing process lives
------------------
     ethr =  1.20E-09,  avg # of iterations =  3.0

     negative rho (up, down):  1.837E-01 0.000E+00

     total cpu time spent up to now is       27.6 secs

     total energy              =      -2.29509225 Ry
     estimated scf accuracy    <       0.00000012 Ry

     iteration # 33     ecut=    15.00 Ry     beta= 0.70
     Davidson diagonalization with overlap

---- Real-time Memory Report at c_bands before calling an iterative solver
           210 MiB given to the printing process from OS
             0 MiB allocation reported by mallinfo(arena+hblkhd)
           110 MiB available memory on the node where the printing process lives
------------------
     ethr =  1.20E-09,  avg # of iterations =  3.0

     negative rho (up, down):  1.837E-01 0.000E+00

     total cpu time spent up to now is       28.0 secs

     total energy              =      -2.29509375 Ry
     estimated scf accuracy    <       0.00000003 Ry

     iteration # 34     ecut=    15.00 Ry     beta= 0.70
     Davidson diagonalization with overlap

---- Real-time Memory Report at c_bands before calling an iterative solver
           210 MiB given to the printing process from OS
             0 MiB allocation reported by mallinfo(arena+hblkhd)
           110 MiB available memory on the node where the printing process lives
------------------
     ethr =  1.20E-09,  avg # of iterations =  2.0

     negative rho (up, down):  1.837E-01 0.000E+00

     total cpu time spent up to now is       28.4 secs

     total energy              =      -2.29508793 Ry
     estimated scf accuracy    <       0.00000004 Ry

     iteration # 35     ecut=    15.00 Ry     beta= 0.70
     Davidson diagonalization with overlap

---- Real-time Memory Report at c_bands before calling an iterative solver
           210 MiB given to the printing process from OS
             0 MiB allocation reported by mallinfo(arena+hblkhd)
           110 MiB available memory on the node where the printing process lives
------------------
     ethr =  1.20E-09,  avg # of iterations =  3.0

     negative rho (up, down):  1.837E-01 0.000E+00

     total cpu time spent up to now is       28.8 secs

     total energy              =      -2.29507863 Ry
     estimated scf accuracy    <       0.00000010 Ry

     iteration # 36     ecut=    15.00 Ry     beta= 0.70
     Davidson diagonalization with overlap

---- Real-time Memory Report at c_bands before calling an iterative solver
           210 MiB given to the printing process from OS
             0 MiB allocation reported by mallinfo(arena+hblkhd)
           110 MiB available memory on the node where the printing process lives
------------------
     ethr =  1.20E-09,  avg # of iterations =  3.0

     negative rho (up, down):  1.837E-01 0.000E+00

     total cpu time spent up to now is       29.2 secs

     total energy              =      -2.29505963 Ry
     estimated scf accuracy    <       0.00000016 Ry

     iteration # 37     ecut=    15.00 Ry     beta= 0.70
     Davidson diagonalization with overlap

---- Real-time Memory Report at c_bands before calling an iterative solver
           210 MiB given to the printing process from OS
             0 MiB allocation reported by mallinfo(arena+hblkhd)
           110 MiB available memory on the node where the printing process lives
------------------
     ethr =  1.20E-09,  avg # of iterations =  3.0

     negative rho (up, down):  1.837E-01 0.000E+00

     total cpu time spent up to now is       29.6 secs

     total energy              =      -2.29506390 Ry
     estimated scf accuracy    <       0.00000018 Ry

     iteration # 38     ecut=    15.00 Ry     beta= 0.70
     Davidson diagonalization with overlap

---- Real-time Memory Report at c_bands before calling an iterative solver
           210 MiB given to the printing process from OS
             0 MiB allocation reported by mallinfo(arena+hblkhd)
           110 MiB available memory on the node where the printing process lives
------------------
     ethr =  1.20E-09,  avg # of iterations =  3.0

     negative rho (up, down):  1.837E-01 0.000E+00

     total cpu time spent up to now is       30.0 secs

     total energy              =      -2.29507796 Ry
     estimated scf accuracy    <       0.00000019 Ry

     iteration # 39     ecut=    15.00 Ry     beta= 0.70
     Davidson diagonalization with overlap

---- Real-time Memory Report at c_bands before calling an iterative solver
           210 MiB given to the printing process from OS
             0 MiB allocation reported by mallinfo(arena+hblkhd)
           110 MiB available memory on the node where the printing process lives
------------------
     ethr =  1.20E-09,  avg # of iterations =  3.0

     negative rho (up, down):  1.837E-01 0.000E+00

     total cpu time spent up to now is       30.4 secs

     total energy              =      -2.29509588 Ry
     estimated scf accuracy    <       0.00000034 Ry

     iteration # 40     ecut=    15.00 Ry     beta= 0.70
     Davidson diagonalization with overlap

---- Real-time Memory Report at c_bands before calling an iterative solver
           210 MiB given to the printing process from OS
             0 MiB allocation reported by mallinfo(arena+hblkhd)
           110 MiB available memory on the node where the printing process lives
------------------
     ethr =  1.20E-09,  avg # of iterations =  3.0

     negative rho (up, down):  1.837E-01 0.000E+00

     total cpu time spent up to now is       30.8 secs

     total energy              =      -2.29509485 Ry
     estimated scf accuracy    <       0.00000010 Ry

     iteration # 41     ecut=    15.00 Ry     beta= 0.70
     Davidson diagonalization with overlap

---- Real-time Memory Report at c_bands before calling an iterative solver
           210 MiB given to the printing process from OS
             0 MiB allocation reported by mallinfo(arena+hblkhd)
           110 MiB available memory on the node where the printing process lives
------------------
     ethr =  1.20E-09,  avg # of iterations =  2.0

     negative rho (up, down):  1.837E-01 0.000E+00

     total cpu time spent up to now is       31.2 secs

     total energy              =      -2.29509897 Ry
     estimated scf accuracy    <       0.00000007 Ry

     iteration # 42     ecut=    15.00 Ry     beta= 0.70
     Davidson diagonalization with overlap

---- Real-time Memory Report at c_bands before calling an iterative solver
           210 MiB given to the printing process from OS
             0 MiB allocation reported by mallinfo(arena+hblkhd)
           110 MiB available memory on the node where the printing process lives
------------------
     ethr =  1.20E-09,  avg # of iterations =  2.0

     negative rho (up, down):  1.836E-01 0.000E+00

     total cpu time spent up to now is       31.6 secs

     total energy              =      -2.29513676 Ry
     estimated scf accuracy    <       0.00000007 Ry

     iteration # 43     ecut=    15.00 Ry     beta= 0.70
     Davidson diagonalization with overlap

---- Real-time Memory Report at c_bands before calling an iterative solver
           210 MiB given to the printing process from OS
             0 MiB allocation reported by mallinfo(arena+hblkhd)
           110 MiB available memory on the node where the printing process lives
------------------
     ethr =  1.20E-09,  avg # of iterations =  3.0

     negative rho (up, down):  1.837E-01 0.000E+00

     total cpu time spent up to now is       32.0 secs

     total energy              =      -2.29510296 Ry
     estimated scf accuracy    <          3.9E-09 Ry

     iteration # 44     ecut=    15.00 Ry     beta= 0.70
     Davidson diagonalization with overlap

---- Real-time Memory Report at c_bands before calling an iterative solver
           210 MiB given to the printing process from OS
             0 MiB allocation reported by mallinfo(arena+hblkhd)
           110 MiB available memory on the node where the printing process lives
------------------
     ethr =  1.96E-10,  avg # of iterations =  4.0

     negative rho (up, down):  1.836E-01 0.000E+00

     total cpu time spent up to now is       32.4 secs

     total energy              =      -2.29510751 Ry
     estimated scf accuracy    <       0.00000003 Ry

     iteration # 45     ecut=    15.00 Ry     beta= 0.70
     Davidson diagonalization with overlap

---- Real-time Memory Report at c_bands before calling an iterative solver
           210 MiB given to the printing process from OS
             0 MiB allocation reported by mallinfo(arena+hblkhd)
           110 MiB available memory on the node where the printing process lives
------------------
     ethr =  1.96E-10,  avg # of iterations =  4.0

     negative rho (up, down):  1.836E-01 0.000E+00

     total cpu time spent up to now is       32.8 secs

     total energy              =      -2.29513000 Ry
     estimated scf accuracy    <       0.00000005 Ry

     iteration # 46     ecut=    15.00 Ry     beta= 0.70
     Davidson diagonalization with overlap

---- Real-time Memory Report at c_bands before calling an iterative solver
           210 MiB given to the printing process from OS
             0 MiB allocation reported by mallinfo(arena+hblkhd)
           110 MiB available memory on the node where the printing process lives
------------------
     ethr =  1.96E-10,  avg # of iterations =  4.0

     negative rho (up, down):  1.836E-01 0.000E+00

     total cpu time spent up to now is       33.3 secs

     total energy              =      -2.29510905 Ry
     estimated scf accuracy    <          2.3E-09 Ry

     iteration # 47     ecut=    15.00 Ry     beta= 0.70
     Davidson diagonalization with overlap

---- Real-time Memory Report at c_bands before calling an iterative solver
           210 MiB given to the printing process from OS
             0 MiB allocation reported by mallinfo(arena+hblkhd)
           110 MiB available memory on the node where the printing process lives
------------------
     ethr =  1.14E-10,  avg # of iterations =  4.0

     negative rho (up, down):  1.836E-01 0.000E+00

     total cpu time spent up to now is       33.7 secs

     total energy              =      -2.29511617 Ry
     estimated scf accuracy    <       0.00000004 Ry

     iteration # 48     ecut=    15.00 Ry     beta= 0.70
     Davidson diagonalization with overlap

---- Real-time Memory Report at c_bands before calling an iterative solver
           210 MiB given to the printing process from OS
             0 MiB allocation reported by mallinfo(arena+hblkhd)
           110 MiB available memory on the node where the printing process lives
------------------
     ethr =  1.14E-10,  avg # of iterations =  4.0

     negative rho (up, down):  1.836E-01 0.000E+00

     total cpu time spent up to now is       34.1 secs

     total energy              =      -2.29509169 Ry
     estimated scf accuracy    <       0.00000005 Ry

     iteration # 49     ecut=    15.00 Ry     beta= 0.70
     Davidson diagonalization with overlap

---- Real-time Memory Report at c_bands before calling an iterative solver
           210 MiB given to the printing process from OS
             0 MiB allocation reported by mallinfo(arena+hblkhd)
           110 MiB available memory on the node where the printing process lives
------------------
     ethr =  1.14E-10,  avg # of iterations =  5.0

     negative rho (up, down):  1.837E-01 0.000E+00

     total cpu time spent up to now is       34.6 secs

     total energy              =      -2.29508348 Ry
     estimated scf accuracy    <       0.00000008 Ry

     iteration # 50     ecut=    15.00 Ry     beta= 0.70
     Davidson diagonalization with overlap

---- Real-time Memory Report at c_bands before calling an iterative solver
           210 MiB given to the printing process from OS
             0 MiB allocation reported by mallinfo(arena+hblkhd)
           110 MiB available memory on the node where the printing process lives
------------------
     ethr =  1.14E-10,  avg # of iterations =  5.0

     negative rho (up, down):  1.836E-01 0.000E+00

     total cpu time spent up to now is       35.0 secs

     total energy              =      -2.29508939 Ry
     estimated scf accuracy    <       0.00000008 Ry

     iteration # 51     ecut=    15.00 Ry     beta= 0.70
     Davidson diagonalization with overlap

---- Real-time Memory Report at c_bands before calling an iterative solver
           210 MiB given to the printing process from OS
             0 MiB allocation reported by mallinfo(arena+hblkhd)
           110 MiB available memory on the node where the printing process lives
------------------
     ethr =  1.14E-10,  avg # of iterations =  3.0

     negative rho (up, down):  1.836E-01 0.000E+00

     total cpu time spent up to now is       35.4 secs

     total energy              =      -2.29509142 Ry
     estimated scf accuracy    <       0.00000007 Ry

     iteration # 52     ecut=    15.00 Ry     beta= 0.70
     Davidson diagonalization with overlap

---- Real-time Memory Report at c_bands before calling an iterative solver
           210 MiB given to the printing process from OS
             0 MiB allocation reported by mallinfo(arena+hblkhd)
           110 MiB available memory on the node where the printing process lives
------------------
     ethr =  1.14E-10,  avg # of iterations =  4.0

     negative rho (up, down):  1.837E-01 0.000E+00

     total cpu time spent up to now is       35.8 secs

     total energy              =      -2.29508622 Ry
     estimated scf accuracy    <       0.00000003 Ry

     iteration # 53     ecut=    15.00 Ry     beta= 0.70
     Davidson diagonalization with overlap

---- Real-time Memory Report at c_bands before calling an iterative solver
           210 MiB given to the printing process from OS
             0 MiB allocation reported by mallinfo(arena+hblkhd)
           110 MiB available memory on the node where the printing process lives
------------------
     ethr =  1.14E-10,  avg # of iterations =  4.0

     negative rho (up, down):  1.837E-01 0.000E+00

     total cpu time spent up to now is       36.3 secs

     total energy              =      -2.29508984 Ry
     estimated scf accuracy    <       0.00000008 Ry

     iteration # 54     ecut=    15.00 Ry     beta= 0.70
     Davidson diagonalization with overlap

---- Real-time Memory Report at c_bands before calling an iterative solver
           210 MiB given to the printing process from OS
             0 MiB allocation reported by mallinfo(arena+hblkhd)
           110 MiB available memory on the node where the printing process lives
------------------
     ethr =  1.14E-10,  avg # of iterations =  4.0

     negative rho (up, down):  1.837E-01 0.000E+00

     total cpu time spent up to now is       36.7 secs

     total energy              =      -2.29509667 Ry
     estimated scf accuracy    <       0.00000004 Ry

     iteration # 55     ecut=    15.00 Ry     beta= 0.70
     Davidson diagonalization with overlap

---- Real-time Memory Report at c_bands before calling an iterative solver
           210 MiB given to the printing process from OS
             0 MiB allocation reported by mallinfo(arena+hblkhd)
           110 MiB available memory on the node where the printing process lives
------------------
     ethr =  1.14E-10,  avg # of iterations =  4.0

     negative rho (up, down):  1.837E-01 0.000E+00

     total cpu time spent up to now is       37.2 secs

     total energy              =      -2.29509728 Ry
     estimated scf accuracy    <       0.00000003 Ry

     iteration # 56     ecut=    15.00 Ry     beta= 0.70
     Davidson diagonalization with overlap

---- Real-time Memory Report at c_bands before calling an iterative solver
           210 MiB given to the printing process from OS
             0 MiB allocation reported by mallinfo(arena+hblkhd)
           110 MiB available memory on the node where the printing process lives
------------------
     ethr =  1.14E-10,  avg # of iterations =  2.0

     negative rho (up, down):  1.836E-01 0.000E+00

     total cpu time spent up to now is       37.6 secs

     total energy              =      -2.29511530 Ry
     estimated scf accuracy    <       0.00000003 Ry

     iteration # 57     ecut=    15.00 Ry     beta= 0.70
     Davidson diagonalization with overlap

---- Real-time Memory Report at c_bands before calling an iterative solver
           210 MiB given to the printing process from OS
             0 MiB allocation reported by mallinfo(arena+hblkhd)
           110 MiB available memory on the node where the printing process lives
------------------
     ethr =  1.14E-10,  avg # of iterations =  4.0

     negative rho (up, down):  1.836E-01 0.000E+00

     total cpu time spent up to now is       38.0 secs

     total energy              =      -2.29511619 Ry
     estimated scf accuracy    <       0.00000008 Ry

     iteration # 58     ecut=    15.00 Ry     beta= 0.70
     Davidson diagonalization with overlap

---- Real-time Memory Report at c_bands before calling an iterative solver
           210 MiB given to the printing process from OS
             0 MiB allocation reported by mallinfo(arena+hblkhd)
           110 MiB available memory on the node where the printing process lives
------------------
     ethr =  1.14E-10,  avg # of iterations =  2.0

[...]
------------------
     ethr =  1.14E-10,  avg # of iterations =  4.0

     negative rho (up, down):  1.836E-01 0.000E+00

     total cpu time spent up to now is       46.0 secs

     total energy              =      -2.29513108 Ry
     estimated scf accuracy    <       0.00000005 Ry

     iteration # 77     ecut=    15.00 Ry     beta= 0.70
     Davidson diagonalization with overlap

---- Real-time Memory Report at c_bands before calling an iterative solver
           210 MiB given to the printing process from OS
             0 MiB allocation reported by mallinfo(arena+hblkhd)
           109 MiB available memory on the node where the printing process lives
------------------
     ethr =  1.14E-10,  avg # of iterations =  4.0

     negative rho (up, down):  1.836E-01 0.000E+00

     total cpu time spent up to now is       46.4 secs

     total energy              =      -2.29513421 Ry
     estimated scf accuracy    <       0.00000006 Ry

     iteration # 78     ecut=    15.00 Ry     beta= 0.70
     Davidson diagonalization with overlap

---- Real-time Memory Report at c_bands before calling an iterative solver
           210 MiB given to the printing process from OS
             0 MiB allocation reported by mallinfo(arena+hblkhd)
           109 MiB available memory on the node where the printing process lives
------------------
     ethr =  1.14E-10,  avg # of iterations =  4.0

     negative rho (up, down):  1.836E-01 0.000E+00

     total cpu time spent up to now is       46.9 secs

     total energy              =      -2.29509784 Ry
     estimated scf accuracy    <       0.00000008 Ry

     iteration # 79     ecut=    15.00 Ry     beta= 0.70
     Davidson diagonalization with overlap

---- Real-time Memory Report at c_bands before calling an iterative solver
           210 MiB given to the printing process from OS
             0 MiB allocation reported by mallinfo(arena+hblkhd)
           109 MiB available memory on the node where the printing process lives
------------------
     ethr =  1.14E-10,  avg # of iterations =  5.0

     negative rho (up, down):  1.836E-01 0.000E+00

     total cpu time spent up to now is       47.4 secs

     total energy              =      -2.29511656 Ry
     estimated scf accuracy    <       0.00000001 Ry

     iteration # 80     ecut=    15.00 Ry     beta= 0.70
     Davidson diagonalization with overlap

---- Real-time Memory Report at c_bands before calling an iterative solver
           210 MiB given to the printing process from OS
             0 MiB allocation reported by mallinfo(arena+hblkhd)
           109 MiB available memory on the node where the printing process lives
------------------
     ethr =  1.14E-10,  avg # of iterations =  4.0

     negative rho (up, down):  1.836E-01 0.000E+00

     total cpu time spent up to now is       47.8 secs

     total energy              =      -2.29511919 Ry
     estimated scf accuracy    <       0.00000002 Ry

     iteration # 81     ecut=    15.00 Ry     beta= 0.70
     Davidson diagonalization with overlap

---- Real-time Memory Report at c_bands before calling an iterative solver
           210 MiB given to the printing process from OS
             0 MiB allocation reported by mallinfo(arena+hblkhd)
           109 MiB available memory on the node where the printing process lives
------------------
     ethr =  1.14E-10,  avg # of iterations =  3.0

     negative rho (up, down):  1.836E-01 0.000E+00

     total cpu time spent up to now is       48.2 secs

     total energy              =      -2.29512521 Ry
     estimated scf accuracy    <       0.00000002 Ry

     iteration # 82     ecut=    15.00 Ry     beta= 0.70
     Davidson diagonalization with overlap

---- Real-time Memory Report at c_bands before calling an iterative solver
           210 MiB given to the printing process from OS
             0 MiB allocation reported by mallinfo(arena+hblkhd)
           109 MiB available memory on the node where the printing process lives
------------------
     ethr =  1.14E-10,  avg # of iterations =  4.0

     negative rho (up, down):  1.836E-01 0.000E+00

     total cpu time spent up to now is       48.6 secs

     total energy              =      -2.29512609 Ry
     estimated scf accuracy    <       0.00000004 Ry

     iteration # 83     ecut=    15.00 Ry     beta= 0.70
     Davidson diagonalization with overlap

---- Real-time Memory Report at c_bands before calling an iterative solver
           210 MiB given to the printing process from OS
             0 MiB allocation reported by mallinfo(arena+hblkhd)
           109 MiB available memory on the node where the printing process lives
------------------
     ethr =  1.14E-10,  avg # of iterations =  1.0

     negative rho (up, down):  1.836E-01 0.000E+00

     total cpu time spent up to now is       49.0 secs

     total energy              =      -2.29509048 Ry
     estimated scf accuracy    <       0.00000004 Ry

     iteration # 84     ecut=    15.00 Ry     beta= 0.70
     Davidson diagonalization with overlap

---- Real-time Memory Report at c_bands before calling an iterative solver
           210 MiB given to the printing process from OS
             0 MiB allocation reported by mallinfo(arena+hblkhd)
           109 MiB available memory on the node where the printing process lives
------------------
     ethr =  1.14E-10,  avg # of iterations =  4.0

     negative rho (up, down):  1.836E-01 0.000E+00

     total cpu time spent up to now is       49.4 secs

     total energy              =      -2.29509607 Ry
     estimated scf accuracy    <       0.00000003 Ry

     iteration # 85     ecut=    15.00 Ry     beta= 0.70
     Davidson diagonalization with overlap

---- Real-time Memory Report at c_bands before calling an iterative solver
           210 MiB given to the printing process from OS
             0 MiB allocation reported by mallinfo(arena+hblkhd)
           109 MiB available memory on the node where the printing process lives
------------------
     ethr =  1.14E-10,  avg # of iterations =  3.0

     negative rho (up, down):  1.836E-01 0.000E+00

     total cpu time spent up to now is       49.8 secs

     total energy              =      -2.29511223 Ry
     estimated scf accuracy    <       0.00000003 Ry

     iteration # 86     ecut=    15.00 Ry     beta= 0.70
     Davidson diagonalization with overlap

---- Real-time Memory Report at c_bands before calling an iterative solver
           210 MiB given to the printing process from OS
             0 MiB allocation reported by mallinfo(arena+hblkhd)
           109 MiB available memory on the node where the printing process lives
------------------
     ethr =  1.14E-10,  avg # of iterations =  4.0

     negative rho (up, down):  1.836E-01 0.000E+00

     total cpu time spent up to now is       50.2 secs

     total energy              =      -2.29508506 Ry
     estimated scf accuracy    <       0.00000002 Ry

     iteration # 87     ecut=    15.00 Ry     beta= 0.70
     Davidson diagonalization with overlap

---- Real-time Memory Report at c_bands before calling an iterative solver
           210 MiB given to the printing process from OS
             0 MiB allocation reported by mallinfo(arena+hblkhd)
           109 MiB available memory on the node where the printing process lives
------------------
     ethr =  1.14E-10,  avg # of iterations =  5.0

     negative rho (up, down):  1.836E-01 0.000E+00

     total cpu time spent up to now is       50.7 secs

     total energy              =      -2.29510082 Ry
     estimated scf accuracy    <       0.00000014 Ry

     iteration # 88     ecut=    15.00 Ry     beta= 0.70
     Davidson diagonalization with overlap

---- Real-time Memory Report at c_bands before calling an iterative solver
           210 MiB given to the printing process from OS
             0 MiB allocation reported by mallinfo(arena+hblkhd)
           109 MiB available memory on the node where the printing process lives
------------------
     ethr =  1.14E-10,  avg # of iterations =  5.0

     negative rho (up, down):  1.836E-01 0.000E+00

     total cpu time spent up to now is       51.1 secs

     total energy              =      -2.29508835 Ry
     estimated scf accuracy    <       0.00000004 Ry

     iteration # 89     ecut=    15.00 Ry     beta= 0.70
     Davidson diagonalization with overlap

---- Real-time Memory Report at c_bands before calling an iterative solver
           210 MiB given to the printing process from OS
             0 MiB allocation reported by mallinfo(arena+hblkhd)
           109 MiB available memory on the node where the printing process lives
------------------
     ethr =  1.14E-10,  avg # of iterations =  5.0

     negative rho (up, down):  1.836E-01 0.000E+00

     total cpu time spent up to now is       51.5 secs

     total energy              =      -2.29509249 Ry
     estimated scf accuracy    <       0.00000005 Ry

     iteration # 90     ecut=    15.00 Ry     beta= 0.70
     Davidson diagonalization with overlap

---- Real-time Memory Report at c_bands before calling an iterative solver
           210 MiB given to the printing process from OS
             0 MiB allocation reported by mallinfo(arena+hblkhd)
           109 MiB available memory on the node where the printing process lives
------------------
     ethr =  1.14E-10,  avg # of iterations =  2.0

     negative rho (up, down):  1.836E-01 0.000E+00

     total cpu time spent up to now is       51.9 secs

     total energy              =      -2.29509298 Ry
     estimated scf accuracy    <       0.00000005 Ry

     iteration # 91     ecut=    15.00 Ry     beta= 0.70
     Davidson diagonalization with overlap

---- Real-time Memory Report at c_bands before calling an iterative solver
           210 MiB given to the printing process from OS
             0 MiB allocation reported by mallinfo(arena+hblkhd)
           109 MiB available memory on the node where the printing process lives
------------------
     ethr =  1.14E-10,  avg # of iterations =  3.0

     negative rho (up, down):  1.836E-01 0.000E+00

     total cpu time spent up to now is       52.3 secs

     total energy              =      -2.29509307 Ry
     estimated scf accuracy    <       0.00000006 Ry

     iteration # 92     ecut=    15.00 Ry     beta= 0.70
     Davidson diagonalization with overlap

---- Real-time Memory Report at c_bands before calling an iterative solver
           210 MiB given to the printing process from OS
             0 MiB allocation reported by mallinfo(arena+hblkhd)
           109 MiB available memory on the node where the printing process lives
------------------
     ethr =  1.14E-10,  avg # of iterations =  2.0

     negative rho (up, down):  1.836E-01 0.000E+00

     total cpu time spent up to now is       52.7 secs

     total energy              =      -2.29510130 Ry
     estimated scf accuracy    <       0.00000006 Ry

     iteration # 93     ecut=    15.00 Ry     beta= 0.70
     Davidson diagonalization with overlap

---- Real-time Memory Report at c_bands before calling an iterative solver
           210 MiB given to the printing process from OS
             0 MiB allocation reported by mallinfo(arena+hblkhd)
           109 MiB available memory on the node where the printing process lives
------------------
     ethr =  1.14E-10,  avg # of iterations =  4.0

     negative rho (up, down):  1.836E-01 0.000E+00

     total cpu time spent up to now is       53.1 secs

     total energy              =      -2.29511459 Ry
     estimated scf accuracy    <       0.00000006 Ry

     iteration # 94     ecut=    15.00 Ry     beta= 0.70
     Davidson diagonalization with overlap

---- Real-time Memory Report at c_bands before calling an iterative solver
           210 MiB given to the printing process from OS
             0 MiB allocation reported by mallinfo(arena+hblkhd)
           109 MiB available memory on the node where the printing process lives
------------------
     ethr =  1.14E-10,  avg # of iterations =  4.0

     negative rho (up, down):  1.836E-01 0.000E+00

     total cpu time spent up to now is       53.6 secs

     total energy              =      -2.29508628 Ry
     estimated scf accuracy    <       0.00000004 Ry

     iteration # 95     ecut=    15.00 Ry     beta= 0.70
     Davidson diagonalization with overlap

---- Real-time Memory Report at c_bands before calling an iterative solver
           210 MiB given to the printing process from OS
             0 MiB allocation reported by mallinfo(arena+hblkhd)
           109 MiB available memory on the node where the printing process lives
------------------
     ethr =  1.14E-10,  avg # of iterations =  5.0

     negative rho (up, down):  1.836E-01 0.000E+00

     total cpu time spent up to now is       54.0 secs

     total energy              =      -2.29509450 Ry
     estimated scf accuracy    <       0.00000009 Ry

     iteration # 96     ecut=    15.00 Ry     beta= 0.70
     Davidson diagonalization with overlap

---- Real-time Memory Report at c_bands before calling an iterative solver
           210 MiB given to the printing process from OS
             0 MiB allocation reported by mallinfo(arena+hblkhd)
           109 MiB available memory on the node where the printing process lives
------------------
     ethr =  1.14E-10,  avg # of iterations =  4.0

     negative rho (up, down):  1.837E-01 0.000E+00

     total cpu time spent up to now is       54.4 secs

     total energy              =      -2.29508594 Ry
     estimated scf accuracy    <       0.00000003 Ry

     iteration # 97     ecut=    15.00 Ry     beta= 0.70
     Davidson diagonalization with overlap

---- Real-time Memory Report at c_bands before calling an iterative solver
           210 MiB given to the printing process from OS
             0 MiB allocation reported by mallinfo(arena+hblkhd)
           109 MiB available memory on the node where the printing process lives
------------------
     ethr =  1.14E-10,  avg # of iterations =  4.0

     negative rho (up, down):  1.837E-01 0.000E+00

     total cpu time spent up to now is       54.8 secs

     total energy              =      -2.29510016 Ry
     estimated scf accuracy    <       0.00000006 Ry

     iteration # 98     ecut=    15.00 Ry     beta= 0.70
     Davidson diagonalization with overlap

---- Real-time Memory Report at c_bands before calling an iterative solver
           210 MiB given to the printing process from OS
             0 MiB allocation reported by mallinfo(arena+hblkhd)
           109 MiB available memory on the node where the printing process lives
------------------
     ethr =  1.14E-10,  avg # of iterations =  4.0

     negative rho (up, down):  1.837E-01 0.000E+00

     total cpu time spent up to now is       55.3 secs

     total energy              =      -2.29509649 Ry
     estimated scf accuracy    <       0.00000004 Ry

     iteration # 99     ecut=    15.00 Ry     beta= 0.70
     Davidson diagonalization with overlap

---- Real-time Memory Report at c_bands before calling an iterative solver
           210 MiB given to the printing process from OS
             0 MiB allocation reported by mallinfo(arena+hblkhd)
           109 MiB available memory on the node where the printing process lives
------------------
     ethr =  1.14E-10,  avg # of iterations =  4.0

     negative rho (up, down):  1.837E-01 0.000E+00

     total cpu time spent up to now is       55.7 secs

     total energy              =      -2.29509435 Ry
     estimated scf accuracy    <       0.00000003 Ry

     iteration #100     ecut=    15.00 Ry     beta= 0.70
     Davidson diagonalization with overlap

---- Real-time Memory Report at c_bands before calling an iterative solver
           210 MiB given to the printing process from OS
             0 MiB allocation reported by mallinfo(arena+hblkhd)
           109 MiB available memory on the node where the printing process lives
------------------
     ethr =  1.14E-10,  avg # of iterations =  3.0

     negative rho (up, down):  1.837E-01 0.000E+00

     total cpu time spent up to now is       56.2 secs

     total energy              =      -2.29509313 Ry
     estimated scf accuracy    <       0.00000005 Ry

     End of self-consistent calculation

     convergence NOT achieved after 100 iterations: stopping

     Writing config to output data dir ./.save/
     Message from routine punch:
     wavefunctions written to file

     init_run     :      0.36s CPU      0.39s WALL (       1 calls)
     electrons    :     53.99s CPU     54.29s WALL (       5 calls)
     update_pot   :      0.98s CPU      1.02s WALL (       4 calls)
     forces       :      0.37s CPU      0.37s WALL (       4 calls)

     Called by init_run:
     wfcinit      :      0.03s CPU      0.03s WALL (       1 calls)
     wfcinit:atom :      0.00s CPU      0.00s WALL (       1 calls)
     wfcinit:wfcr :      0.03s CPU      0.03s WALL (       1 calls)
     potinit      :      0.22s CPU      0.23s WALL (       1 calls)
     hinit0       :      0.03s CPU      0.03s WALL (       1 calls)

     Called by electrons:
     c_bands      :     12.73s CPU     12.77s WALL (     129 calls)
     sum_band     :      6.08s CPU      6.13s WALL (     129 calls)
     v_of_rho     :     27.55s CPU     27.65s WALL (     134 calls)
     v_h          :      1.57s CPU      1.58s WALL (     134 calls)
     v_xc         :     25.97s CPU     26.07s WALL (     134 calls)
     newd         :      2.03s CPU      2.05s WALL (     134 calls)
     mix_rho      :      6.09s CPU      6.16s WALL (     129 calls)

     Called by c_bands:
     init_us_2    :      0.18s CPU      0.18s WALL (     259 calls)
     init_us_2:cp :      0.18s CPU      0.18s WALL (     259 calls)
     cegterg      :     12.60s CPU     12.64s WALL (     129 calls)

     Called by sum_band:
     sum_band:wei :      0.00s CPU      0.00s WALL (     129 calls)
     sum_band:loo :      1.78s CPU      1.80s WALL (     129 calls)
     sum_band:buf :      0.00s CPU      0.00s WALL (     129 calls)
     sum_band:ini :      0.09s CPU      0.09s WALL (     129 calls)
     sum_band:cal :      0.03s CPU      0.02s WALL (     129 calls)
     sum_band:bec :      0.00s CPU      0.00s WALL (     129 calls)
     addusdens    :      0.56s CPU      0.57s WALL (     129 calls)
     addusd:skk   :      0.17s CPU      0.17s WALL (     129 calls)
     addusd:dgemm :      0.12s CPU      0.12s WALL (     129 calls)
     addusd:qvan2 :      0.14s CPU      0.15s WALL (     129 calls)

     Called by *egterg:
     cdiaghg      :      0.01s CPU      0.01s WALL (     614 calls)
     cegterg:over :      0.17s CPU      0.17s WALL (     489 calls)
     cegterg:upda :      0.13s CPU      0.13s WALL (     489 calls)
     cegterg:last :      0.27s CPU      0.27s WALL (     366 calls)
     h_psi        :     11.78s CPU     11.82s WALL (     619 calls)
     s_psi        :      0.06s CPU      0.06s WALL (     619 calls)
     g_psi        :      0.06s CPU      0.06s WALL (     489 calls)

     Called by h_psi:
     h_psi:calbec :      0.09s CPU      0.09s WALL (     619 calls)
     vloc_psi     :     11.58s CPU     11.62s WALL (     619 calls)
     add_vuspsi   :      0.07s CPU      0.07s WALL (     619 calls)

     General routines
     calbec       :      0.12s CPU      0.12s WALL (     764 calls)
     fft          :     13.81s CPU     13.86s WALL (    1486 calls)
     ffts         :      1.23s CPU      1.24s WALL (     129 calls)
     fftw         :     11.95s CPU     12.00s WALL (    2088 calls)
     davcio       :      0.00s CPU      0.03s WALL (      19 calls)


     PWSCF        :     55.88s CPU     56.27s WALL


   This run was terminated on:   1: 0:26  28Feb2022            

=------------------------------------------------------------------------------=
   JOB DONE.
=------------------------------------------------------------------------------=
