
     Program PWSCF v.7.0 starts on 28Feb2022 at  2:55:47 

     This program is part of the open-source Quantum ESPRESSO suite
     for quantum simulation of materials; please cite
         "P. Giannozzi et al., J. Phys.:Condens. Matter 21 395502 (2009);
         "P. Giannozzi et al., J. Phys.:Condens. Matter 29 465901 (2017);
         "P. Giannozzi et al., J. Chem. Phys. 152 154105 (2020);
          URL http://www.quantum-espresso.org", 
     in publications or presentations arising from this work. More details at
     http://www.quantum-espresso.org/quote

     Serial version
     561 MiB available memory on the printing compute node when the environment starts

     Waiting for input...
     Reading input from standard input

     Current dimensions of program PWSCF are:
     Max number of different atomic species (ntypx) = 10
     Max number of k-points (npk) =  40000
     Max angular momentum in pseudopotentials (lmaxx) =  4

    ============================================================
    |  pseudopotential report for atomic species:  1           |
    |        pseudo potential version   7   3   2              |
    ------------------------------------------------------------
    |  hydrogen            PBE                  exchange-corr  |
    |  z =   1.    zv( 1) =   1.    exfact =   5.00000         |
    |  ifpcor =  0           atomic energy =  -0.91772 Ry      |
    |  index    orbital      occupation    energy              |
    |    1        100           1.00       -0.48               |
    |  rinner =  0.5000                                        |
    |    new generation scheme:                                |
    |    nbeta =  1     kkbeta =  271     rcloc =    0.6000    |
    |    ibeta    l     epsilon   rcut                         |
    |      1       0      -0.48   0.80                         |
    ============================================================

     IMPORTANT: XC functional enforced from input :
     Exchange-correlation= BLYP
                           (   1   3   1   3   0   0   0)
     Any further DFT definition will be discarded
     Please, verify this is what you really want


     G-vector sticks info
     --------------------
     sticks:   dense  smooth     PW     G-vecs:    dense   smooth      PW
     Sum        2869    2869    793               115313   115313   17071

     Using Slab Decomposition



     bravais-lattice index     =            1
     lattice parameter (alat)  =      30.0000  a.u.
     unit-cell volume          =   27000.0000 (a.u.)^3
     number of atoms/cell      =            2
     number of atomic types    =            1
     number of electrons       =         2.00
     number of Kohn-Sham states=            2
     kinetic-energy cutoff     =      10.0000  Ry
     charge density cutoff     =      40.0000  Ry
     scf convergence threshold =      1.0E-08
     mixing beta               =       0.7000
     number of iterations used =            8  plain     mixing
     energy convergence thresh.=      1.0E-04
     force convergence thresh. =      1.0E-03
     Exchange-correlation= BLYP
                           (   1   3   1   3   0   0   0)
     nstep                     =           50


     celldm(1)=  30.000000  celldm(2)=   0.000000  celldm(3)=   0.000000
     celldm(4)=   0.000000  celldm(5)=   0.000000  celldm(6)=   0.000000

     crystal axes: (cart. coord. in units of alat)
               a(1) = (   1.000000   0.000000   0.000000 )  
               a(2) = (   0.000000   1.000000   0.000000 )  
               a(3) = (   0.000000   0.000000   1.000000 )  

     reciprocal axes: (cart. coord. in units 2 pi/alat)
               b(1) = (  1.000000  0.000000  0.000000 )  
               b(2) = (  0.000000  1.000000  0.000000 )  
               b(3) = (  0.000000  0.000000  1.000000 )  


     PseudoPot. # 1 for hy read from file:
     /root/q-e/pseudo/H_US.van
     MD5 check sum: a9a9bfe98ff56cf4de197d71fc46bb44
     Pseudo is Ultrasoft, Zval =  1.0
     Generated by Vanderbilt code, v. 7.3.2
     Using radial grid of  399 points,  1 beta functions with: 
                l(1) =   0
     Q(r) pseudized with  8 coefficients,  rinner =    0.500

     atomic species   valence    mass     pseudopotential
        H              1.00     1.00784     hy( 1.00)

      8 Sym. Ops. (no inversion) found


                                    s                        frac. trans.

      isym =  1     identity                                     

 cryst.   s( 1) = (     1          0          0      )
                  (     0          1          0      )
                  (     0          0          1      )

 cart.    s( 1) = (  1.0000000  0.0000000  0.0000000 )
                  (  0.0000000  1.0000000  0.0000000 )
                  (  0.0000000  0.0000000  1.0000000 )


      isym =  2     180 deg rotation - cart. axis [1,0,0]        

 cryst.   s( 2) = (     1          0          0      )
                  (     0         -1          0      )
                  (     0          0         -1      )

 cart.    s( 2) = (  1.0000000  0.0000000  0.0000000 )
                  (  0.0000000 -1.0000000  0.0000000 )
                  (  0.0000000  0.0000000 -1.0000000 )


      isym =  3      90 deg rotation - cart. axis [-1,0,0]       

 cryst.   s( 3) = (     1          0          0      )
                  (     0          0         -1      )
                  (     0          1          0      )

 cart.    s( 3) = (  1.0000000  0.0000000  0.0000000 )
                  (  0.0000000  0.0000000  1.0000000 )
                  (  0.0000000 -1.0000000  0.0000000 )


      isym =  4      90 deg rotation - cart. axis [1,0,0]        

 cryst.   s( 4) = (     1          0          0      )
                  (     0          0          1      )
                  (     0         -1          0      )

 cart.    s( 4) = (  1.0000000  0.0000000  0.0000000 )
                  (  0.0000000  0.0000000 -1.0000000 )
                  (  0.0000000  1.0000000  0.0000000 )


      isym =  5     inv. 180 deg rotation - cart. axis [0,0,1]   

 cryst.   s( 5) = (     1          0          0      )
                  (     0          1          0      )
                  (     0          0         -1      )

 cart.    s( 5) = (  1.0000000  0.0000000  0.0000000 )
                  (  0.0000000  1.0000000  0.0000000 )
                  (  0.0000000  0.0000000 -1.0000000 )


      isym =  6     inv. 180 deg rotation - cart. axis [0,1,0]   

 cryst.   s( 6) = (     1          0          0      )
                  (     0         -1          0      )
                  (     0          0          1      )

 cart.    s( 6) = (  1.0000000  0.0000000  0.0000000 )
                  (  0.0000000 -1.0000000  0.0000000 )
                  (  0.0000000  0.0000000  1.0000000 )


      isym =  7     inv. 180 deg rotation - cart. axis [0,1,1]   

 cryst.   s( 7) = (     1          0          0      )
                  (     0          0         -1      )
                  (     0         -1          0      )

 cart.    s( 7) = (  1.0000000  0.0000000  0.0000000 )
                  (  0.0000000  0.0000000 -1.0000000 )
                  (  0.0000000 -1.0000000  0.0000000 )


      isym =  8     inv. 180 deg rotation - cart. axis [0,1,-1]  

 cryst.   s( 8) = (     1          0          0      )
                  (     0          0          1      )
                  (     0          1          0      )

 cart.    s( 8) = (  1.0000000  0.0000000  0.0000000 )
                  (  0.0000000  0.0000000  1.0000000 )
                  (  0.0000000  1.0000000  0.0000000 )


     point group C_4v (4mm) 
     there are  5 classes
     the character table:

       E     2C4   C2    2s_v  2s_d 
A_1    1.00  1.00  1.00  1.00  1.00
A_2    1.00  1.00  1.00 -1.00 -1.00
B_1    1.00 -1.00  1.00  1.00 -1.00
B_2    1.00 -1.00  1.00 -1.00  1.00
E      2.00  0.00 -2.00  0.00  0.00

     the symmetry operations in each class and the name of the first element:

     E        1
          identity                                               
     2C4      3    4
           90 deg rotation - cart. axis [-1,0,0]                 
     C2       2
          180 deg rotation - cart. axis [1,0,0]                  
     2s_v     5    6
          inv. 180 deg rotation - cart. axis [0,0,1]             
     2s_d     7    8
          inv. 180 deg rotation - cart. axis [0,1,1]             

   Cartesian axes

     site n.     atom                  positions (alat units)
         1           H   tau(   1) = (   0.0000000   0.0000000   0.0000000  )
         2           H   tau(   2) = (   0.0466132   0.0000000   0.0000000  )

   Crystallographic axes

     site n.     atom                  positions (cryst. coord.)
         1           H   tau(   1) = (  0.0000000  0.0000000  0.0000000  )
         2           H   tau(   2) = (  0.0466132  0.0000000  0.0000000  )

     number of k points=     1
                       cart. coord. in units 2pi/alat
        k(    1) = (  -0.5000000  -0.5000000  -0.5000000), wk =   2.0000000

                       cryst. coord.
        k(    1) = (  -0.5000000  -0.5000000  -0.5000000), wk =   2.0000000

     Dense  grid:   115313 G-vectors     FFT dimensions: (  64,  64,  64)

     Dynamical RAM for                 wfc:       0.44 MB

     Dynamical RAM for     wfc (w. buffer):       0.44 MB

     Dynamical RAM for           str. fact:       1.76 MB

     Dynamical RAM for           local pot:       0.00 MB

     Dynamical RAM for          nlocal pot:       0.44 MB

     Dynamical RAM for                qrad:       0.00 MB

     Dynamical RAM for          rho,v,vnew:      11.28 MB

     Dynamical RAM for               rhoin:       3.76 MB

     Dynamical RAM for            rho*nmix:      28.15 MB

     Dynamical RAM for           G-vectors:       7.48 MB

     Dynamical RAM for          h,s,v(r/c):       0.00 MB

     Dynamical RAM for          <psi|beta>:       0.00 MB

     Dynamical RAM for                 psi:       0.88 MB

     Dynamical RAM for                hpsi:       0.88 MB

     Dynamical RAM for                spsi:       0.88 MB

     Dynamical RAM for      wfcinit/wfcrot:       0.88 MB

     Dynamical RAM for           addusdens:      10.56 MB

     Dynamical RAM for          addusforce:      14.96 MB

     Estimated static dynamical RAM per process >      38.68 MB

     Estimated max dynamical RAM per process >      81.79 MB

     Initial potential from superposition of free atoms

     starting charge       2.0000, renormalised to       2.0000

     negative rho (up, down):  2.118E-01 0.000E+00
     Starting wfcs are    2 randomized atomic wfcs

     total cpu time spent up to now is        0.2 secs

     Self-consistent Calculation

     iteration #  1     ecut=    10.00 Ry     beta= 0.70
     Davidson diagonalization with overlap

---- Real-time Memory Report at c_bands before calling an iterative solver
            80 MiB given to the printing process from OS
             0 MiB allocation reported by mallinfo(arena+hblkhd)
           513 MiB available memory on the node where the printing process lives
------------------
     ethr =  1.00E-02,  avg # of iterations =  5.0

     negative rho (up, down):  3.192E-01 0.000E+00

     total cpu time spent up to now is        0.5 secs

     total energy              =      -2.24462389 Ry
     estimated scf accuracy    <       0.11451085 Ry

     iteration #  2     ecut=    10.00 Ry     beta= 0.70
     Davidson diagonalization with overlap

---- Real-time Memory Report at c_bands before calling an iterative solver
           101 MiB given to the printing process from OS
             0 MiB allocation reported by mallinfo(arena+hblkhd)
           474 MiB available memory on the node where the printing process lives
------------------
     ethr =  5.73E-03,  avg # of iterations =  1.0

     negative rho (up, down):  3.404E-01 0.000E+00

     total cpu time spent up to now is        0.7 secs

     total energy              =      -2.24440194 Ry
     estimated scf accuracy    <       0.00151611 Ry

     iteration #  3     ecut=    10.00 Ry     beta= 0.70
     Davidson diagonalization with overlap

---- Real-time Memory Report at c_bands before calling an iterative solver
           104 MiB given to the printing process from OS
             0 MiB allocation reported by mallinfo(arena+hblkhd)
           470 MiB available memory on the node where the printing process lives
------------------
     ethr =  7.58E-05,  avg # of iterations =  9.0

     negative rho (up, down):  3.404E-01 0.000E+00

     total cpu time spent up to now is        0.9 secs

     total energy              =      -2.24480141 Ry
     estimated scf accuracy    <       0.00001441 Ry

     iteration #  4     ecut=    10.00 Ry     beta= 0.70
     Davidson diagonalization with overlap

---- Real-time Memory Report at c_bands before calling an iterative solver
           108 MiB given to the printing process from OS
             0 MiB allocation reported by mallinfo(arena+hblkhd)
           466 MiB available memory on the node where the printing process lives
------------------
     ethr =  7.21E-07,  avg # of iterations =  5.0

     negative rho (up, down):  3.409E-01 0.000E+00

     total cpu time spent up to now is        1.2 secs

     total energy              =      -2.24460239 Ry
     estimated scf accuracy    <       0.00000167 Ry

     iteration #  5     ecut=    10.00 Ry     beta= 0.70
     Davidson diagonalization with overlap

---- Real-time Memory Report at c_bands before calling an iterative solver
           111 MiB given to the printing process from OS
             0 MiB allocation reported by mallinfo(arena+hblkhd)
           463 MiB available memory on the node where the printing process lives
------------------
     ethr =  8.37E-08,  avg # of iterations =  3.0

     negative rho (up, down):  3.411E-01 0.000E+00

     total cpu time spent up to now is        1.4 secs

     total energy              =      -2.24456752 Ry
     estimated scf accuracy    <       0.00000054 Ry

     iteration #  6     ecut=    10.00 Ry     beta= 0.70
     Davidson diagonalization with overlap

---- Real-time Memory Report at c_bands before calling an iterative solver
           115 MiB given to the printing process from OS
             0 MiB allocation reported by mallinfo(arena+hblkhd)
           460 MiB available memory on the node where the printing process lives
------------------
     ethr =  2.72E-08,  avg # of iterations =  3.0

     negative rho (up, down):  3.410E-01 0.000E+00

     total cpu time spent up to now is        1.6 secs

     total energy              =      -2.24458000 Ry
     estimated scf accuracy    <       0.00000003 Ry

     iteration #  7     ecut=    10.00 Ry     beta= 0.70
     Davidson diagonalization with overlap

---- Real-time Memory Report at c_bands before calling an iterative solver
           118 MiB given to the printing process from OS
             0 MiB allocation reported by mallinfo(arena+hblkhd)
           456 MiB available memory on the node where the printing process lives
------------------
     ethr =  1.72E-09,  avg # of iterations =  3.0

     negative rho (up, down):  3.410E-01 0.000E+00

     total cpu time spent up to now is        1.8 secs

     total energy              =      -2.24458444 Ry
     estimated scf accuracy    <       0.00000001 Ry

     iteration #  8     ecut=    10.00 Ry     beta= 0.70
     Davidson diagonalization with overlap

---- Real-time Memory Report at c_bands before calling an iterative solver
           122 MiB given to the printing process from OS
             0 MiB allocation reported by mallinfo(arena+hblkhd)
           452 MiB available memory on the node where the printing process lives
------------------
     ethr =  5.39E-10,  avg # of iterations =  3.0

     negative rho (up, down):  3.411E-01 0.000E+00

     total cpu time spent up to now is        2.0 secs

     End of self-consistent calculation

          k =-0.5000-0.5000-0.5000 ( 14400 PWs)   bands (ev):

   -10.8343  -1.5291

     occupation numbers 
     1.0000   0.0000

     highest occupied, lowest unoccupied level (ev):   -10.8343   -1.5291

!    total energy              =      -2.24456765 Ry
     estimated scf accuracy    <          9.1E-09 Ry

     The total energy is the sum of the following terms:
     one-electron contribution =      -4.17747626 Ry
     hartree contribution      =       2.25552446 Ry
     xc contribution           =      -1.37482254 Ry
     ewald contribution        =       1.05220669 Ry

     convergence has been achieved in   8 iterations

     Forces acting on atoms (cartesian axes, Ry/au):

     atom    1 type  1   force =     0.07483766    0.00000000    0.00000000
     atom    2 type  1   force =    -0.07483766    0.00000000    0.00000000
     The non-local contrib.  to forces
     atom    1 type  1   force =     0.20195951    0.00000000    0.00000000
     atom    2 type  1   force =    -0.20333416    0.00000000    0.00000000
     The ionic contribution  to forces
     atom    1 type  1   force =    -1.02231162    0.00000000   -0.00000000
     atom    2 type  1   force =     1.02231162   -0.00000000   -0.00000000
     The local contribution  to forces
     atom    1 type  1   force =     0.89440421    0.00000000    0.00000000
     atom    2 type  1   force =    -0.89446641    0.00000000    0.00000000
     The core correction contribution to forces
     atom    1 type  1   force =     0.00000000    0.00000000    0.00000000
     atom    2 type  1   force =     0.00000000    0.00000000    0.00000000
     The Hubbard contrib.    to forces
     atom    1 type  1   force =     0.00000000    0.00000000    0.00000000
     atom    2 type  1   force =     0.00000000    0.00000000    0.00000000
     The SCF correction term to forces
     atom    1 type  1   force =     0.00035262    0.00000000    0.00000000
     atom    2 type  1   force =     0.00021834    0.00000000    0.00000000

     Total force =     0.105836     Total SCF correction =     0.000415

     BFGS Geometry Optimization
     Energy error            =      0.0E+00 Ry
     Gradient error          =      7.5E-02 Ry/Bohr

     number of scf cycles    =   1
     number of bfgs steps    =   0

     energy             new  =      -2.2445676503 Ry

     new trust radius        =       0.0748376634 bohr
     new conv_thr            =       0.0000000100 Ry


ATOMIC_POSITIONS (angstrom)
H             0.0396023860        0.0000000000        0.0000000000
H             0.7003976140        0.0000000000        0.0000000000



     Writing config-only to output data dir ./.save/
     NEW-OLD atomic charge density approx. for the potential

     negative rho (up, down):  3.471E-01 0.000E+00

     total cpu time spent up to now is        2.2 secs

     Self-consistent Calculation

     iteration #  1     ecut=    10.00 Ry     beta= 0.70
     Davidson diagonalization with overlap

---- Real-time Memory Report at c_bands before calling an iterative solver
           124 MiB given to the printing process from OS
             0 MiB allocation reported by mallinfo(arena+hblkhd)
           509 MiB available memory on the node where the printing process lives
------------------
     ethr =  1.00E-06,  avg # of iterations =  4.0

     negative rho (up, down):  3.772E-01 0.000E+00

     total cpu time spent up to now is        2.5 secs

     total energy              =      -2.22052829 Ry
     estimated scf accuracy    <       0.00152473 Ry

     iteration #  2     ecut=    10.00 Ry     beta= 0.70
     Davidson diagonalization with overlap

---- Real-time Memory Report at c_bands before calling an iterative solver
           124 MiB given to the printing process from OS
             0 MiB allocation reported by mallinfo(arena+hblkhd)
           471 MiB available memory on the node where the printing process lives
------------------
     ethr =  7.62E-05,  avg # of iterations =  2.0

     negative rho (up, down):  3.858E-01 0.000E+00

     total cpu time spent up to now is        2.7 secs

     total energy              =      -2.21702209 Ry
     estimated scf accuracy    <       0.00003139 Ry

     iteration #  3     ecut=    10.00 Ry     beta= 0.70
     Davidson diagonalization with overlap

---- Real-time Memory Report at c_bands before calling an iterative solver
           124 MiB given to the printing process from OS
             0 MiB allocation reported by mallinfo(arena+hblkhd)
           468 MiB available memory on the node where the printing process lives
------------------
     ethr =  1.57E-06,  avg # of iterations =  5.0

     negative rho (up, down):  3.861E-01 0.000E+00

     total cpu time spent up to now is        2.9 secs

     total energy              =      -2.21683019 Ry
     estimated scf accuracy    <       0.00000309 Ry

     iteration #  4     ecut=    10.00 Ry     beta= 0.70
     Davidson diagonalization with overlap

---- Real-time Memory Report at c_bands before calling an iterative solver
           124 MiB given to the printing process from OS
             0 MiB allocation reported by mallinfo(arena+hblkhd)
           464 MiB available memory on the node where the printing process lives
------------------
     ethr =  1.54E-07,  avg # of iterations =  3.0

     negative rho (up, down):  3.860E-01 0.000E+00

     total cpu time spent up to now is        3.1 secs

     total energy              =      -2.21695290 Ry
     estimated scf accuracy    <       0.00000368 Ry

     iteration #  5     ecut=    10.00 Ry     beta= 0.70
     Davidson diagonalization with overlap

---- Real-time Memory Report at c_bands before calling an iterative solver
           124 MiB given to the printing process from OS
             0 MiB allocation reported by mallinfo(arena+hblkhd)
           461 MiB available memory on the node where the printing process lives
------------------
     ethr =  1.54E-07,  avg # of iterations =  3.0

     negative rho (up, down):  3.869E-01 0.000E+00

     total cpu time spent up to now is        3.4 secs

     total energy              =      -2.21617946 Ry
     estimated scf accuracy    <       0.00000675 Ry

     iteration #  6     ecut=    10.00 Ry     beta= 0.70
     Davidson diagonalization with overlap

---- Real-time Memory Report at c_bands before calling an iterative solver
           124 MiB given to the printing process from OS
             0 MiB allocation reported by mallinfo(arena+hblkhd)
           457 MiB available memory on the node where the printing process lives
------------------
     ethr =  1.54E-07,  avg # of iterations =  4.0

     negative rho (up, down):  3.869E-01 0.000E+00

     total cpu time spent up to now is        3.6 secs

     total energy              =      -2.21692344 Ry
     estimated scf accuracy    <       0.00005766 Ry

     iteration #  7     ecut=    10.00 Ry     beta= 0.70
     Davidson diagonalization with overlap

---- Real-time Memory Report at c_bands before calling an iterative solver
           124 MiB given to the printing process from OS
             0 MiB allocation reported by mallinfo(arena+hblkhd)
           454 MiB available memory on the node where the printing process lives
------------------
     ethr =  1.54E-07,  avg # of iterations =  3.0

     negative rho (up, down):  3.870E-01 0.000E+00

     total cpu time spent up to now is        3.8 secs

     total energy              =      -2.21616011 Ry
     estimated scf accuracy    <       0.00003844 Ry

     iteration #  8     ecut=    10.00 Ry     beta= 0.70
     Davidson diagonalization with overlap

---- Real-time Memory Report at c_bands before calling an iterative solver
           125 MiB given to the printing process from OS
             0 MiB allocation reported by mallinfo(arena+hblkhd)
           450 MiB available memory on the node where the printing process lives
------------------
     ethr =  1.54E-07,  avg # of iterations =  4.0

     negative rho (up, down):  3.871E-01 0.000E+00

     total cpu time spent up to now is        4.1 secs

     total energy              =      -2.21661731 Ry
     estimated scf accuracy    <       0.00000037 Ry

     iteration #  9     ecut=    10.00 Ry     beta= 0.70
     Davidson diagonalization with overlap

---- Real-time Memory Report at c_bands before calling an iterative solver
           128 MiB given to the printing process from OS
             0 MiB allocation reported by mallinfo(arena+hblkhd)
           447 MiB available memory on the node where the printing process lives
------------------
     ethr =  1.87E-08,  avg # of iterations =  4.0

     negative rho (up, down):  3.871E-01 0.000E+00

     total cpu time spent up to now is        4.3 secs

     total energy              =      -2.21637983 Ry
     estimated scf accuracy    <       0.00000474 Ry

     iteration # 10     ecut=    10.00 Ry     beta= 0.70
     Davidson diagonalization with overlap

---- Real-time Memory Report at c_bands before calling an iterative solver
           132 MiB given to the printing process from OS
             0 MiB allocation reported by mallinfo(arena+hblkhd)
           443 MiB available memory on the node where the printing process lives
------------------
     ethr =  1.87E-08,  avg # of iterations =  5.0

     negative rho (up, down):  3.871E-01 0.000E+00

     total cpu time spent up to now is        4.6 secs

     total energy              =      -2.21646687 Ry
     estimated scf accuracy    <       0.00000921 Ry

     iteration # 11     ecut=    10.00 Ry     beta= 0.70
     Davidson diagonalization with overlap

---- Real-time Memory Report at c_bands before calling an iterative solver
           132 MiB given to the printing process from OS
             0 MiB allocation reported by mallinfo(arena+hblkhd)
           443 MiB available memory on the node where the printing process lives
------------------
     ethr =  1.87E-08,  avg # of iterations =  5.0

     negative rho (up, down):  3.870E-01 0.000E+00

     total cpu time spent up to now is        4.8 secs

     total energy              =      -2.21655417 Ry
     estimated scf accuracy    <       0.00000061 Ry

     iteration # 12     ecut=    10.00 Ry     beta= 0.70
     Davidson diagonalization with overlap

---- Real-time Memory Report at c_bands before calling an iterative solver
           132 MiB given to the printing process from OS
             0 MiB allocation reported by mallinfo(arena+hblkhd)
           443 MiB available memory on the node where the printing process lives
------------------
     ethr =  1.87E-08,  avg # of iterations =  5.0

     negative rho (up, down):  3.870E-01 0.000E+00

     total cpu time spent up to now is        5.0 secs

     total energy              =      -2.21649443 Ry
     estimated scf accuracy    <       0.00000633 Ry

     iteration # 13     ecut=    10.00 Ry     beta= 0.70
     Davidson diagonalization with overlap

---- Real-time Memory Report at c_bands before calling an iterative solver
           132 MiB given to the printing process from OS
             0 MiB allocation reported by mallinfo(arena+hblkhd)
           443 MiB available memory on the node where the printing process lives
------------------
     ethr =  1.87E-08,  avg # of iterations =  4.0

     negative rho (up, down):  3.870E-01 0.000E+00

     total cpu time spent up to now is        5.3 secs

     total energy              =      -2.21663720 Ry
     estimated scf accuracy    <       0.00000062 Ry

     iteration # 14     ecut=    10.00 Ry     beta= 0.70
     Davidson diagonalization with overlap

---- Real-time Memory Report at c_bands before calling an iterative solver
           132 MiB given to the printing process from OS
             0 MiB allocation reported by mallinfo(arena+hblkhd)
           443 MiB available memory on the node where the printing process lives
------------------
     ethr =  1.87E-08,  avg # of iterations =  3.0

     negative rho (up, down):  3.869E-01 0.000E+00

     total cpu time spent up to now is        5.5 secs

     total energy              =      -2.21670563 Ry
     estimated scf accuracy    <       0.00000062 Ry

     iteration # 15     ecut=    10.00 Ry     beta= 0.70
     Davidson diagonalization with overlap

---- Real-time Memory Report at c_bands before calling an iterative solver
           132 MiB given to the printing process from OS
             0 MiB allocation reported by mallinfo(arena+hblkhd)
           443 MiB available memory on the node where the printing process lives
------------------
     ethr =  1.87E-08,  avg # of iterations =  3.0

     negative rho (up, down):  3.869E-01 0.000E+00

     total cpu time spent up to now is        5.7 secs

     total energy              =      -2.21670583 Ry
     estimated scf accuracy    <       0.00000161 Ry

     iteration # 16     ecut=    10.00 Ry     beta= 0.70
     Davidson diagonalization with overlap

---- Real-time Memory Report at c_bands before calling an iterative solver
           132 MiB given to the printing process from OS
             0 MiB allocation reported by mallinfo(arena+hblkhd)
           443 MiB available memory on the node where the printing process lives
------------------
     ethr =  1.87E-08,  avg # of iterations =  2.0

     negative rho (up, down):  3.869E-01 0.000E+00

     total cpu time spent up to now is        5.9 secs

     total energy              =      -2.21671306 Ry
     estimated scf accuracy    <       0.00000138 Ry

     iteration # 17     ecut=    10.00 Ry     beta= 0.70
     Davidson diagonalization with overlap

---- Real-time Memory Report at c_bands before calling an iterative solver
           132 MiB given to the printing process from OS
             0 MiB allocation reported by mallinfo(arena+hblkhd)
           443 MiB available memory on the node where the printing process lives
------------------
     ethr =  1.87E-08,  avg # of iterations =  2.0

     negative rho (up, down):  3.869E-01 0.000E+00

     total cpu time spent up to now is        6.2 secs

     total energy              =      -2.21672197 Ry
     estimated scf accuracy    <       0.00000191 Ry

     iteration # 18     ecut=    10.00 Ry     beta= 0.70
     Davidson diagonalization with overlap

---- Real-time Memory Report at c_bands before calling an iterative solver
           132 MiB given to the printing process from OS
             0 MiB allocation reported by mallinfo(arena+hblkhd)
           443 MiB available memory on the node where the printing process lives
------------------
     ethr =  1.87E-08,  avg # of iterations =  3.0

     negative rho (up, down):  3.868E-01 0.000E+00

     total cpu time spent up to now is        6.4 secs

     total energy              =      -2.21653246 Ry
     estimated scf accuracy    <       0.00000285 Ry

     iteration # 19     ecut=    10.00 Ry     beta= 0.70
     Davidson diagonalization with overlap

---- Real-time Memory Report at c_bands before calling an iterative solver
           132 MiB given to the printing process from OS
             0 MiB allocation reported by mallinfo(arena+hblkhd)
           443 MiB available memory on the node where the printing process lives
------------------
     ethr =  1.87E-08,  avg # of iterations =  4.0

     negative rho (up, down):  3.870E-01 0.000E+00

     total cpu time spent up to now is        6.6 secs

     total energy              =      -2.21663041 Ry
     estimated scf accuracy    <       0.00000052 Ry

     iteration # 20     ecut=    10.00 Ry     beta= 0.70
     Davidson diagonalization with overlap

---- Real-time Memory Report at c_bands before calling an iterative solver
           132 MiB given to the printing process from OS
             0 MiB allocation reported by mallinfo(arena+hblkhd)
           443 MiB available memory on the node where the printing process lives
------------------
     ethr =  1.87E-08,  avg # of iterations =  3.0

     negative rho (up, down):  3.869E-01 0.000E+00

     total cpu time spent up to now is        6.8 secs

     total energy              =      -2.21658935 Ry
     estimated scf accuracy    <       0.00000006 Ry

     iteration # 21     ecut=    10.00 Ry     beta= 0.70
     Davidson diagonalization with overlap

---- Real-time Memory Report at c_bands before calling an iterative solver
           132 MiB given to the printing process from OS
             0 MiB allocation reported by mallinfo(arena+hblkhd)
           443 MiB available memory on the node where the printing process lives
------------------
     ethr =  3.11E-09,  avg # of iterations =  5.0

     negative rho (up, down):  3.869E-01 0.000E+00

     total cpu time spent up to now is        7.1 secs

     total energy              =      -2.21662373 Ry
     estimated scf accuracy    <       0.00000264 Ry

     iteration # 22     ecut=    10.00 Ry     beta= 0.70
     Davidson diagonalization with overlap

---- Real-time Memory Report at c_bands before calling an iterative solver
           132 MiB given to the printing process from OS
             0 MiB allocation reported by mallinfo(arena+hblkhd)
           443 MiB available memory on the node where the printing process lives
------------------
     ethr =  3.11E-09,  avg # of iterations =  3.0

     negative rho (up, down):  3.869E-01 0.000E+00

     total cpu time spent up to now is        7.3 secs

     total energy              =      -2.21664970 Ry
     estimated scf accuracy    <       0.00000353 Ry

     iteration # 23     ecut=    10.00 Ry     beta= 0.70
     Davidson diagonalization with overlap

---- Real-time Memory Report at c_bands before calling an iterative solver
           132 MiB given to the printing process from OS
             0 MiB allocation reported by mallinfo(arena+hblkhd)
           443 MiB available memory on the node where the printing process lives
------------------
     ethr =  3.11E-09,  avg # of iterations =  5.0

     negative rho (up, down):  3.869E-01 0.000E+00

     total cpu time spent up to now is        7.5 secs

     total energy              =      -2.21667728 Ry
     estimated scf accuracy    <       0.00000008 Ry

     iteration # 24     ecut=    10.00 Ry     beta= 0.70
     Davidson diagonalization with overlap

---- Real-time Memory Report at c_bands before calling an iterative solver
           132 MiB given to the printing process from OS
             0 MiB allocation reported by mallinfo(arena+hblkhd)
           443 MiB available memory on the node where the printing process lives
------------------
     ethr =  3.11E-09,  avg # of iterations =  3.0

     negative rho (up, down):  3.869E-01 0.000E+00

     total cpu time spent up to now is        7.8 secs

     total energy              =      -2.21668465 Ry
     estimated scf accuracy    <       0.00000004 Ry

     iteration # 25     ecut=    10.00 Ry     beta= 0.70
     Davidson diagonalization with overlap

---- Real-time Memory Report at c_bands before calling an iterative solver
           132 MiB given to the printing process from OS
             0 MiB allocation reported by mallinfo(arena+hblkhd)
           443 MiB available memory on the node where the printing process lives
------------------
     ethr =  2.08E-09,  avg # of iterations =  3.0

     negative rho (up, down):  3.869E-01 0.000E+00

     total cpu time spent up to now is        8.0 secs

     total energy              =      -2.21668823 Ry
     estimated scf accuracy    <       0.00000007 Ry

     iteration # 26     ecut=    10.00 Ry     beta= 0.70
     Davidson diagonalization with overlap

---- Real-time Memory Report at c_bands before calling an iterative solver
           132 MiB given to the printing process from OS
             0 MiB allocation reported by mallinfo(arena+hblkhd)
           443 MiB available memory on the node where the printing process lives
------------------
     ethr =  2.08E-09,  avg # of iterations =  3.0

     negative rho (up, down):  3.869E-01 0.000E+00

     total cpu time spent up to now is        8.2 secs

     total energy              =      -2.21669684 Ry
     estimated scf accuracy    <       0.00000007 Ry

     iteration # 27     ecut=    10.00 Ry     beta= 0.70
     Davidson diagonalization with overlap

---- Real-time Memory Report at c_bands before calling an iterative solver
           132 MiB given to the printing process from OS
             0 MiB allocation reported by mallinfo(arena+hblkhd)
           443 MiB available memory on the node where the printing process lives
------------------
     ethr =  2.08E-09,  avg # of iterations =  4.0

     negative rho (up, down):  3.870E-01 0.000E+00

     total cpu time spent up to now is        8.4 secs

     total energy              =      -2.21672246 Ry
     estimated scf accuracy    <       0.00000121 Ry

     iteration # 28     ecut=    10.00 Ry     beta= 0.70
     Davidson diagonalization with overlap

---- Real-time Memory Report at c_bands before calling an iterative solver
           132 MiB given to the printing process from OS
             0 MiB allocation reported by mallinfo(arena+hblkhd)
           443 MiB available memory on the node where the printing process lives
------------------
     ethr =  2.08E-09,  avg # of iterations =  4.0

     negative rho (up, down):  3.870E-01 0.000E+00

     total cpu time spent up to now is        8.7 secs

     total energy              =      -2.21669035 Ry
     estimated scf accuracy    <       0.00000155 Ry

     iteration # 29     ecut=    10.00 Ry     beta= 0.70
     Davidson diagonalization with overlap

---- Real-time Memory Report at c_bands before calling an iterative solver
           132 MiB given to the printing process from OS
             0 MiB allocation reported by mallinfo(arena+hblkhd)
           443 MiB available memory on the node where the printing process lives
------------------
     ethr =  2.08E-09,  avg # of iterations =  4.0

     negative rho (up, down):  3.870E-01 0.000E+00

     total cpu time spent up to now is        8.9 secs

     total energy              =      -2.21661031 Ry
     estimated scf accuracy    <       0.00000365 Ry

     iteration # 30     ecut=    10.00 Ry     beta= 0.70
     Davidson diagonalization with overlap

---- Real-time Memory Report at c_bands before calling an iterative solver
           132 MiB given to the printing process from OS
             0 MiB allocation reported by mallinfo(arena+hblkhd)
           443 MiB available memory on the node where the printing process lives
------------------
     ethr =  2.08E-09,  avg # of iterations =  5.0

     negative rho (up, down):  3.870E-01 0.000E+00

     total cpu time spent up to now is        9.2 secs

     total energy              =      -2.21660780 Ry
     estimated scf accuracy    <       0.00000003 Ry

     iteration # 31     ecut=    10.00 Ry     beta= 0.70
     Davidson diagonalization with overlap

---- Real-time Memory Report at c_bands before calling an iterative solver
           132 MiB given to the printing process from OS
             0 MiB allocation reported by mallinfo(arena+hblkhd)
           443 MiB available memory on the node where the printing process lives
------------------
     ethr =  1.75E-09,  avg # of iterations =  4.0

     negative rho (up, down):  3.870E-01 0.000E+00

     total cpu time spent up to now is        9.4 secs

     total energy              =      -2.21665386 Ry
     estimated scf accuracy    <       0.00000038 Ry

     iteration # 32     ecut=    10.00 Ry     beta= 0.70
     Davidson diagonalization with overlap

---- Real-time Memory Report at c_bands before calling an iterative solver
           132 MiB given to the printing process from OS
             0 MiB allocation reported by mallinfo(arena+hblkhd)
           443 MiB available memory on the node where the printing process lives
------------------
     ethr =  1.75E-09,  avg # of iterations =  4.0

     negative rho (up, down):  3.870E-01 0.000E+00

     total cpu time spent up to now is        9.6 secs

     total energy              =      -2.21665232 Ry
     estimated scf accuracy    <       0.00000005 Ry

     iteration # 33     ecut=    10.00 Ry     beta= 0.70
     Davidson diagonalization with overlap

---- Real-time Memory Report at c_bands before calling an iterative solver
           132 MiB given to the printing process from OS
             0 MiB allocation reported by mallinfo(arena+hblkhd)
           443 MiB available memory on the node where the printing process lives
------------------
     ethr =  1.75E-09,  avg # of iterations =  4.0

     negative rho (up, down):  3.869E-01 0.000E+00

     total cpu time spent up to now is        9.9 secs

     total energy              =      -2.21669295 Ry
     estimated scf accuracy    <       0.00000042 Ry

     iteration # 34     ecut=    10.00 Ry     beta= 0.70
     Davidson diagonalization with overlap

---- Real-time Memory Report at c_bands before calling an iterative solver
           132 MiB given to the printing process from OS
             0 MiB allocation reported by mallinfo(arena+hblkhd)
           443 MiB available memory on the node where the printing process lives
------------------
     ethr =  1.75E-09,  avg # of iterations =  4.0

     negative rho (up, down):  3.870E-01 0.000E+00

     total cpu time spent up to now is       10.1 secs

     total energy              =      -2.21664021 Ry
     estimated scf accuracy    <       0.00000141 Ry

     iteration # 35     ecut=    10.00 Ry     beta= 0.70
     Davidson diagonalization with overlap

---- Real-time Memory Report at c_bands before calling an iterative solver
           132 MiB given to the printing process from OS
             0 MiB allocation reported by mallinfo(arena+hblkhd)
           443 MiB available memory on the node where the printing process lives
------------------
     ethr =  1.75E-09,  avg # of iterations =  5.0

     negative rho (up, down):  3.870E-01 0.000E+00

     total cpu time spent up to now is       10.3 secs

     total energy              =      -2.21664743 Ry
     estimated scf accuracy    <       0.00000006 Ry

     iteration # 36     ecut=    10.00 Ry     beta= 0.70
     Davidson diagonalization with overlap

---- Real-time Memory Report at c_bands before calling an iterative solver
           132 MiB given to the printing process from OS
             0 MiB allocation reported by mallinfo(arena+hblkhd)
           443 MiB available memory on the node where the printing process lives
------------------
     ethr =  1.75E-09,  avg # of iterations =  4.0

     negative rho (up, down):  3.870E-01 0.000E+00

     total cpu time spent up to now is       10.6 secs

     total energy              =      -2.21665551 Ry
     estimated scf accuracy    <       0.00000003 Ry

     iteration # 37     ecut=    10.00 Ry     beta= 0.70
     Davidson diagonalization with overlap

---- Real-time Memory Report at c_bands before calling an iterative solver
           132 MiB given to the printing process from OS
             0 MiB allocation reported by mallinfo(arena+hblkhd)
           443 MiB available memory on the node where the printing process lives
------------------
     ethr =  1.29E-09,  avg # of iterations =  3.0

     negative rho (up, down):  3.870E-01 0.000E+00

     total cpu time spent up to now is       10.8 secs

     total energy              =      -2.21662241 Ry
     estimated scf accuracy    <       0.00000005 Ry

     iteration # 38     ecut=    10.00 Ry     beta= 0.70
     Davidson diagonalization with overlap

---- Real-time Memory Report at c_bands before calling an iterative solver
           132 MiB given to the printing process from OS
             0 MiB allocation reported by mallinfo(arena+hblkhd)
           443 MiB available memory on the node where the printing process lives
------------------
     ethr =  1.29E-09,  avg # of iterations =  4.0

     negative rho (up, down):  3.871E-01 0.000E+00

     total cpu time spent up to now is       11.0 secs

     total energy              =      -2.21659995 Ry
     estimated scf accuracy    <       0.00000040 Ry

     iteration # 39     ecut=    10.00 Ry     beta= 0.70
     Davidson diagonalization with overlap

---- Real-time Memory Report at c_bands before calling an iterative solver
           132 MiB given to the printing process from OS
             0 MiB allocation reported by mallinfo(arena+hblkhd)
           443 MiB available memory on the node where the printing process lives
------------------
     ethr =  1.29E-09,  avg # of iterations =  4.0

     negative rho (up, down):  3.871E-01 0.000E+00

     total cpu time spent up to now is       11.3 secs

     total energy              =      -2.21660982 Ry
     estimated scf accuracy    <       0.00000009 Ry

     iteration # 40     ecut=    10.00 Ry     beta= 0.70
     Davidson diagonalization with overlap

---- Real-time Memory Report at c_bands before calling an iterative solver
           132 MiB given to the printing process from OS
             0 MiB allocation reported by mallinfo(arena+hblkhd)
           443 MiB available memory on the node where the printing process lives
------------------
     ethr =  1.29E-09,  avg # of iterations =  1.0

     negative rho (up, down):  3.870E-01 0.000E+00

     total cpu time spent up to now is       11.5 secs

     total energy              =      -2.21661182 Ry
     estimated scf accuracy    <       0.00000009 Ry

     iteration # 41     ecut=    10.00 Ry     beta= 0.70
     Davidson diagonalization with overlap

---- Real-time Memory Report at c_bands before calling an iterative solver
           132 MiB given to the printing process from OS
             0 MiB allocation reported by mallinfo(arena+hblkhd)
           443 MiB available memory on the node where the printing process lives
------------------
     ethr =  1.29E-09,  avg # of iterations =  3.0

     negative rho (up, down):  3.870E-01 0.000E+00

     total cpu time spent up to now is       11.7 secs

     total energy              =      -2.21660963 Ry
     estimated scf accuracy    <       0.00000002 Ry

     iteration # 42     ecut=    10.00 Ry     beta= 0.70
     Davidson diagonalization with overlap

---- Real-time Memory Report at c_bands before calling an iterative solver
           132 MiB given to the printing process from OS
             0 MiB allocation reported by mallinfo(arena+hblkhd)
           443 MiB available memory on the node where the printing process lives
------------------
     ethr =  1.21E-09,  avg # of iterations =  4.0

     negative rho (up, down):  3.870E-01 0.000E+00

     total cpu time spent up to now is       11.9 secs

     total energy              =      -2.21658347 Ry
     estimated scf accuracy    <       0.00000007 Ry

     iteration # 43     ecut=    10.00 Ry     beta= 0.70
     Davidson diagonalization with overlap

---- Real-time Memory Report at c_bands before calling an iterative solver
           132 MiB given to the printing process from OS
             0 MiB allocation reported by mallinfo(arena+hblkhd)
           443 MiB available memory on the node where the printing process lives
------------------
     ethr =  1.21E-09,  avg # of iterations =  4.0

     negative rho (up, down):  3.870E-01 0.000E+00

     total cpu time spent up to now is       12.2 secs

     total energy              =      -2.21659798 Ry
     estimated scf accuracy    <       0.00000071 Ry

     iteration # 44     ecut=    10.00 Ry     beta= 0.70
     Davidson diagonalization with overlap

---- Real-time Memory Report at c_bands before calling an iterative solver
           132 MiB given to the printing process from OS
             0 MiB allocation reported by mallinfo(arena+hblkhd)
           443 MiB available memory on the node where the printing process lives
------------------
     ethr =  1.21E-09,  avg # of iterations =  3.0

     negative rho (up, down):  3.870E-01 0.000E+00

     total cpu time spent up to now is       12.4 secs

     total energy              =      -2.21657834 Ry
     estimated scf accuracy    <       0.00000084 Ry

     iteration # 45     ecut=    10.00 Ry     beta= 0.70
     Davidson diagonalization with overlap

---- Real-time Memory Report at c_bands before calling an iterative solver
           132 MiB given to the printing process from OS
             0 MiB allocation reported by mallinfo(arena+hblkhd)
           443 MiB available memory on the node where the printing process lives
------------------
     ethr =  1.21E-09,  avg # of iterations =  4.0

     negative rho (up, down):  3.870E-01 0.000E+00

     total cpu time spent up to now is       12.6 secs

     total energy              =      -2.21658273 Ry
     estimated scf accuracy    <       0.00000026 Ry

     iteration # 46     ecut=    10.00 Ry     beta= 0.70
     Davidson diagonalization with overlap

---- Real-time Memory Report at c_bands before calling an iterative solver
           132 MiB given to the printing process from OS
             0 MiB allocation reported by mallinfo(arena+hblkhd)
           443 MiB available memory on the node where the printing process lives
------------------
     ethr =  1.21E-09,  avg # of iterations =  2.0

     negative rho (up, down):  3.869E-01 0.000E+00

     total cpu time spent up to now is       12.8 secs

     total energy              =      -2.21667195 Ry
     estimated scf accuracy    <       0.00000025 Ry

     iteration # 47     ecut=    10.00 Ry     beta= 0.70
     Davidson diagonalization with overlap

---- Real-time Memory Report at c_bands before calling an iterative solver
           132 MiB given to the printing process from OS
             0 MiB allocation reported by mallinfo(arena+hblkhd)
           443 MiB available memory on the node where the printing process lives
------------------
     ethr =  1.21E-09,  avg # of iterations =  4.0

     negative rho (up, down):  3.869E-01 0.000E+00

     total cpu time spent up to now is       13.1 secs

     total energy              =      -2.21667150 Ry
     estimated scf accuracy    <       0.00000080 Ry

     iteration # 48     ecut=    10.00 Ry     beta= 0.70
     Davidson diagonalization with overlap

---- Real-time Memory Report at c_bands before calling an iterative solver
           132 MiB given to the printing process from OS
             0 MiB allocation reported by mallinfo(arena+hblkhd)
           443 MiB available memory on the node where the printing process lives
------------------
     ethr =  1.21E-09,  avg # of iterations =  4.0

     negative rho (up, down):  3.870E-01 0.000E+00

     total cpu time spent up to now is       13.3 secs

     total energy              =      -2.21669593 Ry
     estimated scf accuracy    <       0.00000011 Ry

     iteration # 49     ecut=    10.00 Ry     beta= 0.70
     Davidson diagonalization with overlap

---- Real-time Memory Report at c_bands before calling an iterative solver
           132 MiB given to the printing process from OS
             0 MiB allocation reported by mallinfo(arena+hblkhd)
           443 MiB available memory on the node where the printing process lives
------------------
     ethr =  1.21E-09,  avg # of iterations =  4.0

     negative rho (up, down):  3.870E-01 0.000E+00

     total cpu time spent up to now is       13.5 secs

     total energy              =      -2.21662759 Ry
     estimated scf accuracy    <       0.00000004 Ry

     iteration # 50     ecut=    10.00 Ry     beta= 0.70
     Davidson diagonalization with overlap

---- Real-time Memory Report at c_bands before calling an iterative solver
           132 MiB given to the printing process from OS
             0 MiB allocation reported by mallinfo(arena+hblkhd)
           443 MiB available memory on the node where the printing process lives
------------------
     ethr =  1.21E-09,  avg # of iterations =  4.0

     negative rho (up, down):  3.870E-01 0.000E+00

     total cpu time spent up to now is       13.8 secs

     total energy              =      -2.21666247 Ry
     estimated scf accuracy    <       0.00000017 Ry

     iteration # 51     ecut=    10.00 Ry     beta= 0.70
     Davidson diagonalization with overlap

---- Real-time Memory Report at c_bands before calling an iterative solver
           132 MiB given to the printing process from OS
             0 MiB allocation reported by mallinfo(arena+hblkhd)
           443 MiB available memory on the node where the printing process lives
------------------
     ethr =  1.21E-09,  avg # of iterations =  4.0

     negative rho (up, down):  3.871E-01 0.000E+00

     total cpu time spent up to now is       14.0 secs

     total energy              =      -2.21658060 Ry
     estimated scf accuracy    <       0.00000006 Ry

     iteration # 52     ecut=    10.00 Ry     beta= 0.70
     Davidson diagonalization with overlap

---- Real-time Memory Report at c_bands before calling an iterative solver
           132 MiB given to the printing process from OS
             0 MiB allocation reported by mallinfo(arena+hblkhd)
           443 MiB available memory on the node where the printing process lives
------------------
     ethr =  1.21E-09,  avg # of iterations =  4.0

     negative rho (up, down):  3.871E-01 0.000E+00

     total cpu time spent up to now is       14.2 secs

     total energy              =      -2.21661527 Ry
     estimated scf accuracy    <       0.00000072 Ry

     iteration # 53     ecut=    10.00 Ry     beta= 0.70
     Davidson diagonalization with overlap

---- Real-time Memory Report at c_bands before calling an iterative solver
           132 MiB given to the printing process from OS
             0 MiB allocation reported by mallinfo(arena+hblkhd)
           443 MiB available memory on the node where the printing process lives
------------------
     ethr =  1.21E-09,  avg # of iterations =  3.0

     negative rho (up, down):  3.870E-01 0.000E+00

     total cpu time spent up to now is       14.5 secs

     total energy              =      -2.21658121 Ry
     estimated scf accuracy    <       0.00000066 Ry

     iteration # 54     ecut=    10.00 Ry     beta= 0.70
     Davidson diagonalization with overlap

---- Real-time Memory Report at c_bands before calling an iterative solver
           132 MiB given to the printing process from OS
             0 MiB allocation reported by mallinfo(arena+hblkhd)
           443 MiB available memory on the node where the printing process lives
------------------
     ethr =  1.21E-09,  avg # of iterations =  4.0

     negative rho (up, down):  3.870E-01 0.000E+00

     total cpu time spent up to now is       14.7 secs

     total energy              =      -2.21664322 Ry
     estimated scf accuracy    <       0.00000043 Ry

     iteration # 55     ecut=    10.00 Ry     beta= 0.70
     Davidson diagonalization with overlap

---- Real-time Memory Report at c_bands before calling an iterative solver
           132 MiB given to the printing process from OS
             0 MiB allocation reported by mallinfo(arena+hblkhd)
           443 MiB available memory on the node where the printing process lives
------------------
     ethr =  1.21E-09,  avg # of iterations =  4.0

     negative rho (up, down):  3.870E-01 0.000E+00

     total cpu time spent up to now is       15.0 secs

     total energy              =      -2.21660650 Ry
     estimated scf accuracy    <       0.00000038 Ry

     iteration # 56     ecut=    10.00 Ry     beta= 0.70
     Davidson diagonalization with overlap

---- Real-time Memory Report at c_bands before calling an iterative solver
           132 MiB given to the printing process from OS
             0 MiB allocation reported by mallinfo(arena+hblkhd)
           443 MiB available memory on the node where the printing process lives
------------------
     ethr =  1.21E-09,  avg # of iterations =  4.0

     negative rho (up, down):  3.870E-01 0.000E+00

     total cpu time spent up to now is       15.2 secs

     total energy              =      -2.21656569 Ry
     estimated scf accuracy    <       0.00000048 Ry

     iteration # 57     ecut=    10.00 Ry     beta= 0.70
     Davidson diagonalization with overlap

---- Real-time Memory Report at c_bands before calling an iterative solver
           132 MiB given to the printing process from OS
             0 MiB allocation reported by mallinfo(arena+hblkhd)
           443 MiB available memory on the node where the printing process lives
------------------
     ethr =  1.21E-09,  avg # of iterations =  4.0

     negative rho (up, down):  3.870E-01 0.000E+00

     total cpu time spent up to now is       15.4 secs

     total energy              =      -2.21667536 Ry
     estimated scf accuracy    <       0.00000088 Ry

     iteration # 58     ecut=    10.00 Ry     beta= 0.70
     Davidson diagonalization with overlap

---- Real-time Memory Report at c_bands before calling an iterative solver
           132 MiB given to the printing process from OS
             0 MiB allocation reported by mallinfo(arena+hblkhd)
           443 MiB available memory on the node where the printing process lives
------------------
     ethr =  1.21E-09,  avg # of iterations =  4.0

     negative rho (up, down):  3.870E-01 0.000E+00

     total cpu time spent up to now is       15.7 secs

     total energy              =      -2.21668033 Ry
     estimated scf accuracy    <       0.00000005 Ry

     iteration # 59     ecut=    10.00 Ry     beta= 0.70
     Davidson diagonalization with overlap

---- Real-time Memory Report at c_bands before calling an iterative solver
           132 MiB given to the printing process from OS
             0 MiB allocation reported by mallinfo(arena+hblkhd)
           443 MiB available memory on the node where the printing process lives
------------------
     ethr =  1.21E-09,  avg # of iterations =  2.0

     negative rho (up, down):  3.870E-01 0.000E+00

     total cpu time spent up to now is       15.9 secs

     total energy              =      -2.21661263 Ry
     estimated scf accuracy    <       0.00000005 Ry

     iteration # 60     ecut=    10.00 Ry     beta= 0.70
     Davidson diagonalization with overlap

---- Real-time Memory Report at c_bands before calling an iterative solver
           132 MiB given to the printing process from OS
             0 MiB allocation reported by mallinfo(arena+hblkhd)
           443 MiB available memory on the node where the printing process lives
------------------
     ethr =  1.21E-09,  avg # of iterations =  4.0

     negative rho (up, down):  3.870E-01 0.000E+00

     total cpu time spent up to now is       16.1 secs

     total energy              =      -2.21670158 Ry
     estimated scf accuracy    <       0.00000023 Ry

     iteration # 61     ecut=    10.00 Ry     beta= 0.70
     Davidson diagonalization with overlap

---- Real-time Memory Report at c_bands before calling an iterative solver
           132 MiB given to the printing process from OS
             0 MiB allocation reported by mallinfo(arena+hblkhd)
           443 MiB available memory on the node where the printing process lives
------------------
     ethr =  1.21E-09,  avg # of iterations =  4.0

     negative rho (up, down):  3.870E-01 0.000E+00

     total cpu time spent up to now is       16.3 secs

     total energy              =      -2.21660781 Ry
     estimated scf accuracy    <       0.00000002 Ry

     iteration # 62     ecut=    10.00 Ry     beta= 0.70
     Davidson diagonalization with overlap

---- Real-time Memory Report at c_bands before calling an iterative solver
           132 MiB given to the printing process from OS
             0 MiB allocation reported by mallinfo(arena+hblkhd)
           443 MiB available memory on the node where the printing process lives
------------------
     ethr =  1.17E-09,  avg # of iterations =  4.0

     negative rho (up, down):  3.870E-01 0.000E+00

     total cpu time spent up to now is       16.6 secs

     total energy              =      -2.21661639 Ry
     estimated scf accuracy    <       0.00000014 Ry

     iteration # 63     ecut=    10.00 Ry     beta= 0.70
     Davidson diagonalization with overlap

---- Real-time Memory Report at c_bands before calling an iterative solver
           132 MiB given to the printing process from OS
             0 MiB allocation reported by mallinfo(arena+hblkhd)
           443 MiB available memory on the node where the printing process lives
------------------
     ethr =  1.17E-09,  avg # of iterations =  4.0

     negative rho (up, down):  3.870E-01 0.000E+00

     total cpu time spent up to now is       16.8 secs

     total energy              =      -2.21662486 Ry
     estimated scf accuracy    <       0.00000082 Ry

     iteration # 64     ecut=    10.00 Ry     beta= 0.70
     Davidson diagonalization with overlap

---- Real-time Memory Report at c_bands before calling an iterative solver
           132 MiB given to the printing process from OS
             0 MiB allocation reported by mallinfo(arena+hblkhd)
           443 MiB available memory on the node where the printing process lives
------------------
     ethr =  1.17E-09,  avg # of iterations =  2.0

     negative rho (up, down):  3.869E-01 0.000E+00

     total cpu time spent up to now is       17.0 secs

     total energy              =      -2.21669823 Ry
     estimated scf accuracy    <       0.00000085 Ry

     iteration # 65     ecut=    10.00 Ry     beta= 0.70
     Davidson diagonalization with overlap

---- Real-time Memory Report at c_bands before calling an iterative solver
           132 MiB given to the printing process from OS
             0 MiB allocation reported by mallinfo(arena+hblkhd)
           443 MiB available memory on the node where the printing process lives
------------------
     ethr =  1.17E-09,  avg # of iterations =  5.0

     negative rho (up, down):  3.870E-01 0.000E+00

     total cpu time spent up to now is       17.3 secs

     total energy              =      -2.21666695 Ry
     estimated scf accuracy    <       0.00000012 Ry

     iteration # 66     ecut=    10.00 Ry     beta= 0.70
     Davidson diagonalization with overlap

---- Real-time Memory Report at c_bands before calling an iterative solver
           132 MiB given to the printing process from OS
             0 MiB allocation reported by mallinfo(arena+hblkhd)
           443 MiB available memory on the node where the printing process lives
------------------
     ethr =  1.17E-09,  avg # of iterations =  5.0

     negative rho (up, down):  3.870E-01 0.000E+00

     total cpu time spent up to now is       17.5 secs

     total energy              =      -2.21666847 Ry
     estimated scf accuracy    <       0.00000110 Ry

     iteration # 67     ecut=    10.00 Ry     beta= 0.70
     Davidson diagonalization with overlap

---- Real-time Memory Report at c_bands before calling an iterative solver
           132 MiB given to the printing process from OS
             0 MiB allocation reported by mallinfo(arena+hblkhd)
           443 MiB available memory on the node where the printing process lives
------------------
     ethr =  1.17E-09,  avg # of iterations =  3.0

     negative rho (up, down):  3.870E-01 0.000E+00

     total cpu time spent up to now is       17.7 secs

     total energy              =      -2.21666280 Ry
     estimated scf accuracy    <       0.00000087 Ry

     iteration # 68     ecut=    10.00 Ry     beta= 0.70
     Davidson diagonalization with overlap

---- Real-time Memory Report at c_bands before calling an iterative solver
           132 MiB given to the printing process from OS
             0 MiB allocation reported by mallinfo(arena+hblkhd)
           443 MiB available memory on the node where the printing process lives
------------------
     ethr =  1.17E-09,  avg # of iterations =  4.0

     negative rho (up, down):  3.870E-01 0.000E+00

     total cpu time spent up to now is       18.0 secs

     total energy              =      -2.21662076 Ry
     estimated scf accuracy    <       0.00000007 Ry

     iteration # 69     ecut=    10.00 Ry     beta= 0.70
     Davidson diagonalization with overlap

---- Real-time Memory Report at c_bands before calling an iterative solver
           132 MiB given to the printing process from OS
             0 MiB allocation reported by mallinfo(arena+hblkhd)
           443 MiB available memory on the node where the printing process lives
------------------
     ethr =  1.17E-09,  avg # of iterations =  4.0

     negative rho (up, down):  3.870E-01 0.000E+00

     total cpu time spent up to now is       18.2 secs

     total energy              =      -2.21669317 Ry
     estimated scf accuracy    <       0.00000074 Ry

     iteration # 70     ecut=    10.00 Ry     beta= 0.70
     Davidson diagonalization with overlap

---- Real-time Memory Report at c_bands before calling an iterative solver
           132 MiB given to the printing process from OS
             0 MiB allocation reported by mallinfo(arena+hblkhd)
           443 MiB available memory on the node where the printing process lives
------------------
     ethr =  1.17E-09,  avg # of iterations =  4.0

     negative rho (up, down):  3.870E-01 0.000E+00

     total cpu time spent up to now is       18.4 secs

     total energy              =      -2.21667295 Ry
     estimated scf accuracy    <       0.00000004 Ry

     iteration # 71     ecut=    10.00 Ry     beta= 0.70
     Davidson diagonalization with overlap

---- Real-time Memory Report at c_bands before calling an iterative solver
           132 MiB given to the printing process from OS
             0 MiB allocation reported by mallinfo(arena+hblkhd)
           443 MiB available memory on the node where the printing process lives
------------------
     ethr =  1.17E-09,  avg # of iterations =  4.0

     negative rho (up, down):  3.870E-01 0.000E+00

     total cpu time spent up to now is       18.7 secs

     total energy              =      -2.21667625 Ry
     estimated scf accuracy    <       0.00000004 Ry

     iteration # 72     ecut=    10.00 Ry     beta= 0.70
     Davidson diagonalization with overlap

---- Real-time Memory Report at c_bands before calling an iterative solver
           132 MiB given to the printing process from OS
             0 MiB allocation reported by mallinfo(arena+hblkhd)
           443 MiB available memory on the node where the printing process lives
------------------
     ethr =  1.17E-09,  avg # of iterations =  1.0

     negative rho (up, down):  3.870E-01 0.000E+00

     total cpu time spent up to now is       18.9 secs

     total energy              =      -2.21667539 Ry
     estimated scf accuracy    <       0.00000004 Ry

     iteration # 73     ecut=    10.00 Ry     beta= 0.70
     Davidson diagonalization with overlap

---- Real-time Memory Report at c_bands before calling an iterative solver
           132 MiB given to the printing process from OS
             0 MiB allocation reported by mallinfo(arena+hblkhd)
           443 MiB available memory on the node where the printing process lives
------------------
     ethr =  1.17E-09,  avg # of iterations =  2.0

     negative rho (up, down):  3.870E-01 0.000E+00

     total cpu time spent up to now is       19.1 secs

     total energy              =      -2.21661926 Ry
     estimated scf accuracy    <       0.00000004 Ry

     iteration # 74     ecut=    10.00 Ry     beta= 0.70
     Davidson diagonalization with overlap

---- Real-time Memory Report at c_bands before calling an iterative solver
           132 MiB given to the printing process from OS
             0 MiB allocation reported by mallinfo(arena+hblkhd)
           443 MiB available memory on the node where the printing process lives
------------------
     ethr =  1.17E-09,  avg # of iterations =  4.0

     negative rho (up, down):  3.870E-01 0.000E+00

     total cpu time spent up to now is       19.3 secs

     total energy              =      -2.21665614 Ry
     estimated scf accuracy    <       0.00000020 Ry

     iteration # 75     ecut=    10.00 Ry     beta= 0.70
     Davidson diagonalization with overlap

---- Real-time Memory Report at c_bands before calling an iterative solver
           132 MiB given to the printing process from OS
             0 MiB allocation reported by mallinfo(arena+hblkhd)
           443 MiB available memory on the node where the printing process lives
------------------
     ethr =  1.17E-09,  avg # of iterations =  4.0

     negative rho (up, down):  3.870E-01 0.000E+00

     total cpu time spent up to now is       19.6 secs

     total energy              =      -2.21661995 Ry
     estimated scf accuracy    <       0.00000008 Ry

     iteration # 76     ecut=    10.00 Ry     beta= 0.70
     Davidson diagonalization with overlap

---- Real-time Memory Report at c_bands before calling an iterative solver
           132 MiB given to the printing process from OS
             0 MiB allocation reported by mallinfo(arena+hblkhd)
           443 MiB available memory on the node where the printing process lives
------------------
     ethr =  1.17E-09,  avg # of iterations =  4.0

     negative rho (up, down):  3.869E-01 0.000E+00

     total cpu time spent up to now is       19.8 secs

     End of self-consistent calculation

          k =-0.5000-0.5000-0.5000 ( 14400 PWs)   bands (ev):

   -11.2540  -1.5607

     occupation numbers 
     1.0000   0.0000

     highest occupied, lowest unoccupied level (ev):   -11.2540   -1.5607

!    total energy              =      -2.21666100 Ry
     estimated scf accuracy    <          5.9E-09 Ry

     The total energy is the sum of the following terms:
     one-electron contribution =      -4.38279788 Ry
     hartree contribution      =       2.36693308 Ry
     xc contribution           =      -1.42436989 Ry
     ewald contribution        =       1.22357370 Ry

     convergence has been achieved in  76 iterations

     Forces acting on atoms (cartesian axes, Ry/au):

     atom    1 type  1   force =    -0.16590543    0.00000000    0.00000000
     atom    2 type  1   force =     0.16590543    0.00000000    0.00000000
     The non-local contrib.  to forces
     atom    1 type  1   force =     0.16216722    0.00000000    0.00000000
     atom    2 type  1   force =    -0.17352092    0.00000000    0.00000000
     The ionic contribution  to forces
     atom    1 type  1   force =    -1.28223185   -0.00000000   -0.00000000
     atom    2 type  1   force =     1.28223185    0.00000000   -0.00000000
     The local contribution  to forces
     atom    1 type  1   force =     0.95006394    0.00000000    0.00000000
     atom    2 type  1   force =    -0.95163804    0.00000000    0.00000000
     The core correction contribution to forces
     atom    1 type  1   force =     0.00000000    0.00000000    0.00000000
     atom    2 type  1   force =     0.00000000    0.00000000    0.00000000
     The Hubbard contrib.    to forces
     atom    1 type  1   force =     0.00000000    0.00000000    0.00000000
     atom    2 type  1   force =     0.00000000    0.00000000    0.00000000
     The SCF correction term to forces
     atom    1 type  1   force =    -0.00830009   -0.00000000   -0.00000000
     atom    2 type  1   force =    -0.00356280   -0.00000000   -0.00000000

     Total force =     0.234626     Total SCF correction =     0.009032
     Energy error            =      2.8E-02 Ry
     Gradient error          =      1.7E-01 Ry/Bohr

     number of scf cycles    =   2
     number of bfgs steps    =   1

     energy             old  =      -2.2445676503 Ry
     energy             new  =      -2.2166610033 Ry

     CASE: energy            _new > energy            _old

     new trust radius        =       0.0107175389 bohr
     new conv_thr            =       0.0000000100 Ry


ATOMIC_POSITIONS (angstrom)
H             0.0056714773        0.0000000000        0.0000000000
H             0.7343285227        0.0000000000        0.0000000000



     Writing config-only to output data dir ./.save/
     NEW-OLD atomic charge density approx. for the potential

     negative rho (up, down):  3.794E-01 0.000E+00

     total cpu time spent up to now is       20.0 secs

     Self-consistent Calculation

     iteration #  1     ecut=    10.00 Ry     beta= 0.70
     Davidson diagonalization with overlap

---- Real-time Memory Report at c_bands before calling an iterative solver
           132 MiB given to the printing process from OS
             0 MiB allocation reported by mallinfo(arena+hblkhd)
           508 MiB available memory on the node where the printing process lives
------------------
     ethr =  1.00E-06,  avg # of iterations =  7.0

     negative rho (up, down):  3.535E-01 0.000E+00

     total cpu time spent up to now is       20.3 secs

     total energy              =      -2.23877106 Ry
     estimated scf accuracy    <       0.00144196 Ry

     iteration #  2     ecut=    10.00 Ry     beta= 0.70
     Davidson diagonalization with overlap

---- Real-time Memory Report at c_bands before calling an iterative solver
           132 MiB given to the printing process from OS
             0 MiB allocation reported by mallinfo(arena+hblkhd)
           470 MiB available memory on the node where the printing process lives
------------------
     ethr =  7.21E-05,  avg # of iterations =  2.0

     negative rho (up, down):  3.486E-01 0.000E+00

     total cpu time spent up to now is       20.5 secs

     total energy              =      -2.24187115 Ry
     estimated scf accuracy    <       0.00000708 Ry

     iteration #  3     ecut=    10.00 Ry     beta= 0.70
     Davidson diagonalization with overlap

---- Real-time Memory Report at c_bands before calling an iterative solver
           132 MiB given to the printing process from OS
             0 MiB allocation reported by mallinfo(arena+hblkhd)
           467 MiB available memory on the node where the printing process lives
------------------
     ethr =  3.54E-07,  avg # of iterations =  6.0

     negative rho (up, down):  3.484E-01 0.000E+00

     total cpu time spent up to now is       20.7 secs

     total energy              =      -2.24194081 Ry
     estimated scf accuracy    <       0.00000927 Ry

     iteration #  4     ecut=    10.00 Ry     beta= 0.70
     Davidson diagonalization with overlap

---- Real-time Memory Report at c_bands before calling an iterative solver
           132 MiB given to the printing process from OS
             0 MiB allocation reported by mallinfo(arena+hblkhd)
           463 MiB available memory on the node where the printing process lives
------------------
     ethr =  3.54E-07,  avg # of iterations =  3.0

     negative rho (up, down):  3.485E-01 0.000E+00

     total cpu time spent up to now is       21.0 secs

     total energy              =      -2.24202097 Ry
     estimated scf accuracy    <       0.00000932 Ry

     iteration #  5     ecut=    10.00 Ry     beta= 0.70
     Davidson diagonalization with overlap

---- Real-time Memory Report at c_bands before calling an iterative solver
           132 MiB given to the printing process from OS
             0 MiB allocation reported by mallinfo(arena+hblkhd)
           460 MiB available memory on the node where the printing process lives
------------------
     ethr =  3.54E-07,  avg # of iterations =  2.0

     negative rho (up, down):  3.477E-01 0.000E+00

     total cpu time spent up to now is       21.2 secs

     total energy              =      -2.24234978 Ry
     estimated scf accuracy    <       0.00000225 Ry

     iteration #  6     ecut=    10.00 Ry     beta= 0.70
     Davidson diagonalization with overlap

---- Real-time Memory Report at c_bands before calling an iterative solver
           132 MiB given to the printing process from OS
             0 MiB allocation reported by mallinfo(arena+hblkhd)
           456 MiB available memory on the node where the printing process lives
------------------
     ethr =  1.13E-07,  avg # of iterations =  4.0

     negative rho (up, down):  3.475E-01 0.000E+00

     total cpu time spent up to now is       21.4 secs

     total energy              =      -2.24245761 Ry
     estimated scf accuracy    <       0.00000219 Ry

     iteration #  7     ecut=    10.00 Ry     beta= 0.70
     Davidson diagonalization with overlap

---- Real-time Memory Report at c_bands before calling an iterative solver
           132 MiB given to the printing process from OS
             0 MiB allocation reported by mallinfo(arena+hblkhd)
           453 MiB available memory on the node where the printing process lives
------------------
     ethr =  1.09E-07,  avg # of iterations =  3.0

     negative rho (up, down):  3.475E-01 0.000E+00

     total cpu time spent up to now is       21.7 secs

     total energy              =      -2.24254384 Ry
     estimated scf accuracy    <       0.00000073 Ry

     iteration #  8     ecut=    10.00 Ry     beta= 0.70
     Davidson diagonalization with overlap

---- Real-time Memory Report at c_bands before calling an iterative solver
           132 MiB given to the printing process from OS
             0 MiB allocation reported by mallinfo(arena+hblkhd)
           449 MiB available memory on the node where the printing process lives
------------------
     ethr =  3.63E-08,  avg # of iterations =  3.0

     negative rho (up, down):  3.476E-01 0.000E+00

     total cpu time spent up to now is       21.9 secs

     total energy              =      -2.24248100 Ry
     estimated scf accuracy    <       0.00000210 Ry

     iteration #  9     ecut=    10.00 Ry     beta= 0.70
     Davidson diagonalization with overlap

---- Real-time Memory Report at c_bands before calling an iterative solver
           132 MiB given to the printing process from OS
             0 MiB allocation reported by mallinfo(arena+hblkhd)
           446 MiB available memory on the node where the printing process lives
------------------
     ethr =  3.63E-08,  avg # of iterations =  4.0

     negative rho (up, down):  3.476E-01 0.000E+00

     total cpu time spent up to now is       22.1 secs

     total energy              =      -2.24251903 Ry
     estimated scf accuracy    <       0.00000073 Ry

     iteration # 10     ecut=    10.00 Ry     beta= 0.70
     Davidson diagonalization with overlap

---- Real-time Memory Report at c_bands before calling an iterative solver
           132 MiB given to the printing process from OS
             0 MiB allocation reported by mallinfo(arena+hblkhd)
           442 MiB available memory on the node where the printing process lives
------------------
     ethr =  3.63E-08,  avg # of iterations =  2.0

     negative rho (up, down):  3.476E-01 0.000E+00

     total cpu time spent up to now is       22.4 secs

     total energy              =      -2.24250370 Ry
     estimated scf accuracy    <       0.00000074 Ry

     iteration # 11     ecut=    10.00 Ry     beta= 0.70
     Davidson diagonalization with overlap

---- Real-time Memory Report at c_bands before calling an iterative solver
           132 MiB given to the printing process from OS
             0 MiB allocation reported by mallinfo(arena+hblkhd)
           442 MiB available memory on the node where the printing process lives
------------------
     ethr =  3.63E-08,  avg # of iterations =  2.0

     negative rho (up, down):  3.476E-01 0.000E+00

     total cpu time spent up to now is       22.6 secs

     total energy              =      -2.24251985 Ry
     estimated scf accuracy    <       0.00000121 Ry

     iteration # 12     ecut=    10.00 Ry     beta= 0.70
     Davidson diagonalization with overlap

---- Real-time Memory Report at c_bands before calling an iterative solver
           132 MiB given to the printing process from OS
             0 MiB allocation reported by mallinfo(arena+hblkhd)
           442 MiB available memory on the node where the printing process lives
[...]
------------------
     ethr =  2.43E-09,  avg # of iterations =  1.0

     negative rho (up, down):  3.865E-01 0.000E+00

     total cpu time spent up to now is       48.4 secs

     total energy              =      -2.21681910 Ry
     estimated scf accuracy    <       0.00000028 Ry

     iteration # 77     ecut=    10.00 Ry     beta= 0.70
     Davidson diagonalization with overlap

---- Real-time Memory Report at c_bands before calling an iterative solver
           132 MiB given to the printing process from OS
             0 MiB allocation reported by mallinfo(arena+hblkhd)
           442 MiB available memory on the node where the printing process lives
------------------
     ethr =  2.43E-09,  avg # of iterations =  4.0

     negative rho (up, down):  3.865E-01 0.000E+00

     total cpu time spent up to now is       48.7 secs

     total energy              =      -2.21685220 Ry
     estimated scf accuracy    <       0.00000008 Ry

     iteration # 78     ecut=    10.00 Ry     beta= 0.70
     Davidson diagonalization with overlap

---- Real-time Memory Report at c_bands before calling an iterative solver
           132 MiB given to the printing process from OS
             0 MiB allocation reported by mallinfo(arena+hblkhd)
           442 MiB available memory on the node where the printing process lives
------------------
     ethr =  2.43E-09,  avg # of iterations =  3.0

     negative rho (up, down):  3.865E-01 0.000E+00

     total cpu time spent up to now is       48.9 secs

     total energy              =      -2.21684741 Ry
     estimated scf accuracy    <       0.00000009 Ry

     iteration # 79     ecut=    10.00 Ry     beta= 0.70
     Davidson diagonalization with overlap

---- Real-time Memory Report at c_bands before calling an iterative solver
           132 MiB given to the printing process from OS
             0 MiB allocation reported by mallinfo(arena+hblkhd)
           442 MiB available memory on the node where the printing process lives
------------------
     ethr =  2.43E-09,  avg # of iterations =  4.0

     negative rho (up, down):  3.865E-01 0.000E+00

     total cpu time spent up to now is       49.1 secs

     total energy              =      -2.21687914 Ry
     estimated scf accuracy    <       0.00000011 Ry

     iteration # 80     ecut=    10.00 Ry     beta= 0.70
     Davidson diagonalization with overlap

---- Real-time Memory Report at c_bands before calling an iterative solver
           132 MiB given to the printing process from OS
             0 MiB allocation reported by mallinfo(arena+hblkhd)
           442 MiB available memory on the node where the printing process lives
------------------
     ethr =  2.43E-09,  avg # of iterations =  4.0

     negative rho (up, down):  3.865E-01 0.000E+00

     total cpu time spent up to now is       49.3 secs

     total energy              =      -2.21683044 Ry
     estimated scf accuracy    <       0.00000018 Ry

     iteration # 81     ecut=    10.00 Ry     beta= 0.70
     Davidson diagonalization with overlap

---- Real-time Memory Report at c_bands before calling an iterative solver
           132 MiB given to the printing process from OS
             0 MiB allocation reported by mallinfo(arena+hblkhd)
           442 MiB available memory on the node where the printing process lives
------------------
     ethr =  2.43E-09,  avg # of iterations =  4.0

     negative rho (up, down):  3.865E-01 0.000E+00

     total cpu time spent up to now is       49.6 secs

     total energy              =      -2.21686256 Ry
     estimated scf accuracy    <       0.00000020 Ry

     iteration # 82     ecut=    10.00 Ry     beta= 0.70
     Davidson diagonalization with overlap

---- Real-time Memory Report at c_bands before calling an iterative solver
           132 MiB given to the printing process from OS
             0 MiB allocation reported by mallinfo(arena+hblkhd)
           442 MiB available memory on the node where the printing process lives
------------------
     ethr =  2.43E-09,  avg # of iterations =  2.0

     negative rho (up, down):  3.865E-01 0.000E+00

     total cpu time spent up to now is       49.8 secs

     total energy              =      -2.21683446 Ry
     estimated scf accuracy    <       0.00000019 Ry

     iteration # 83     ecut=    10.00 Ry     beta= 0.70
     Davidson diagonalization with overlap

---- Real-time Memory Report at c_bands before calling an iterative solver
           132 MiB given to the printing process from OS
             0 MiB allocation reported by mallinfo(arena+hblkhd)
           442 MiB available memory on the node where the printing process lives
------------------
     ethr =  2.43E-09,  avg # of iterations =  4.0

     negative rho (up, down):  3.865E-01 0.000E+00

     total cpu time spent up to now is       50.0 secs

     total energy              =      -2.21687581 Ry
     estimated scf accuracy    <       0.00000023 Ry

     iteration # 84     ecut=    10.00 Ry     beta= 0.70
     Davidson diagonalization with overlap

---- Real-time Memory Report at c_bands before calling an iterative solver
           132 MiB given to the printing process from OS
             0 MiB allocation reported by mallinfo(arena+hblkhd)
           442 MiB available memory on the node where the printing process lives
------------------
     ethr =  2.43E-09,  avg # of iterations =  4.0

     negative rho (up, down):  3.865E-01 0.000E+00

     total cpu time spent up to now is       50.3 secs

     total energy              =      -2.21687203 Ry
     estimated scf accuracy    <       0.00000003 Ry

     iteration # 85     ecut=    10.00 Ry     beta= 0.70
     Davidson diagonalization with overlap

---- Real-time Memory Report at c_bands before calling an iterative solver
           132 MiB given to the printing process from OS
             0 MiB allocation reported by mallinfo(arena+hblkhd)
           442 MiB available memory on the node where the printing process lives
------------------
     ethr =  1.74E-09,  avg # of iterations =  4.0

     negative rho (up, down):  3.865E-01 0.000E+00

     total cpu time spent up to now is       50.5 secs

     total energy              =      -2.21682760 Ry
     estimated scf accuracy    <       0.00000069 Ry

     iteration # 86     ecut=    10.00 Ry     beta= 0.70
     Davidson diagonalization with overlap

---- Real-time Memory Report at c_bands before calling an iterative solver
           132 MiB given to the printing process from OS
             0 MiB allocation reported by mallinfo(arena+hblkhd)
           442 MiB available memory on the node where the printing process lives
------------------
     ethr =  1.74E-09,  avg # of iterations =  5.0

     negative rho (up, down):  3.865E-01 0.000E+00

     total cpu time spent up to now is       50.7 secs

     total energy              =      -2.21686214 Ry
     estimated scf accuracy    <       0.00000034 Ry

     iteration # 87     ecut=    10.00 Ry     beta= 0.70
     Davidson diagonalization with overlap

---- Real-time Memory Report at c_bands before calling an iterative solver
           132 MiB given to the printing process from OS
             0 MiB allocation reported by mallinfo(arena+hblkhd)
           442 MiB available memory on the node where the printing process lives
------------------
     ethr =  1.74E-09,  avg # of iterations =  2.0

     negative rho (up, down):  3.865E-01 0.000E+00

     total cpu time spent up to now is       50.9 secs

     total energy              =      -2.21679513 Ry
     estimated scf accuracy    <       0.00000032 Ry

     iteration # 88     ecut=    10.00 Ry     beta= 0.70
     Davidson diagonalization with overlap

---- Real-time Memory Report at c_bands before calling an iterative solver
           132 MiB given to the printing process from OS
             0 MiB allocation reported by mallinfo(arena+hblkhd)
           442 MiB available memory on the node where the printing process lives
------------------
     ethr =  1.74E-09,  avg # of iterations =  5.0

     negative rho (up, down):  3.865E-01 0.000E+00

     total cpu time spent up to now is       51.2 secs

     total energy              =      -2.21685426 Ry
     estimated scf accuracy    <       0.00000014 Ry

     iteration # 89     ecut=    10.00 Ry     beta= 0.70
     Davidson diagonalization with overlap

---- Real-time Memory Report at c_bands before calling an iterative solver
           132 MiB given to the printing process from OS
             0 MiB allocation reported by mallinfo(arena+hblkhd)
           442 MiB available memory on the node where the printing process lives
------------------
     ethr =  1.74E-09,  avg # of iterations =  3.0

     negative rho (up, down):  3.865E-01 0.000E+00

     total cpu time spent up to now is       51.4 secs

     total energy              =      -2.21684881 Ry
     estimated scf accuracy    <       0.00000008 Ry

     iteration # 90     ecut=    10.00 Ry     beta= 0.70
     Davidson diagonalization with overlap

---- Real-time Memory Report at c_bands before calling an iterative solver
           132 MiB given to the printing process from OS
             0 MiB allocation reported by mallinfo(arena+hblkhd)
           442 MiB available memory on the node where the printing process lives
------------------
     ethr =  1.74E-09,  avg # of iterations =  3.0

     negative rho (up, down):  3.865E-01 0.000E+00

     total cpu time spent up to now is       51.6 secs

     total energy              =      -2.21685548 Ry
     estimated scf accuracy    <       0.00000011 Ry

     iteration # 91     ecut=    10.00 Ry     beta= 0.70
     Davidson diagonalization with overlap

---- Real-time Memory Report at c_bands before calling an iterative solver
           132 MiB given to the printing process from OS
             0 MiB allocation reported by mallinfo(arena+hblkhd)
           442 MiB available memory on the node where the printing process lives
------------------
     ethr =  1.74E-09,  avg # of iterations =  3.0

     negative rho (up, down):  3.865E-01 0.000E+00

     total cpu time spent up to now is       51.9 secs

     total energy              =      -2.21682969 Ry
     estimated scf accuracy    <       0.00000005 Ry

     iteration # 92     ecut=    10.00 Ry     beta= 0.70
     Davidson diagonalization with overlap

---- Real-time Memory Report at c_bands before calling an iterative solver
           132 MiB given to the printing process from OS
             0 MiB allocation reported by mallinfo(arena+hblkhd)
           442 MiB available memory on the node where the printing process lives
------------------
     ethr =  1.74E-09,  avg # of iterations =  4.0

     negative rho (up, down):  3.865E-01 0.000E+00

     total cpu time spent up to now is       52.1 secs

     total energy              =      -2.21688796 Ry
     estimated scf accuracy    <       0.00000007 Ry

     iteration # 93     ecut=    10.00 Ry     beta= 0.70
     Davidson diagonalization with overlap

---- Real-time Memory Report at c_bands before calling an iterative solver
           132 MiB given to the printing process from OS
             0 MiB allocation reported by mallinfo(arena+hblkhd)
           442 MiB available memory on the node where the printing process lives
------------------
     ethr =  1.74E-09,  avg # of iterations =  4.0

     negative rho (up, down):  3.865E-01 0.000E+00

     total cpu time spent up to now is       52.3 secs

     total energy              =      -2.21684962 Ry
     estimated scf accuracy    <       0.00000025 Ry

     iteration # 94     ecut=    10.00 Ry     beta= 0.70
     Davidson diagonalization with overlap

---- Real-time Memory Report at c_bands before calling an iterative solver
           132 MiB given to the printing process from OS
             0 MiB allocation reported by mallinfo(arena+hblkhd)
           442 MiB available memory on the node where the printing process lives
------------------
     ethr =  1.74E-09,  avg # of iterations =  4.0

     negative rho (up, down):  3.865E-01 0.000E+00

     total cpu time spent up to now is       52.5 secs

     total energy              =      -2.21686139 Ry
     estimated scf accuracy    <       0.00000005 Ry

     iteration # 95     ecut=    10.00 Ry     beta= 0.70
     Davidson diagonalization with overlap

---- Real-time Memory Report at c_bands before calling an iterative solver
           132 MiB given to the printing process from OS
             0 MiB allocation reported by mallinfo(arena+hblkhd)
           442 MiB available memory on the node where the printing process lives
------------------
     ethr =  1.74E-09,  avg # of iterations =  4.0

     negative rho (up, down):  3.865E-01 0.000E+00

     total cpu time spent up to now is       52.8 secs

     total energy              =      -2.21684625 Ry
     estimated scf accuracy    <       0.00000015 Ry

     iteration # 96     ecut=    10.00 Ry     beta= 0.70
     Davidson diagonalization with overlap

---- Real-time Memory Report at c_bands before calling an iterative solver
           132 MiB given to the printing process from OS
             0 MiB allocation reported by mallinfo(arena+hblkhd)
           442 MiB available memory on the node where the printing process lives
------------------
     ethr =  1.74E-09,  avg # of iterations =  4.0

     negative rho (up, down):  3.865E-01 0.000E+00

     total cpu time spent up to now is       53.0 secs

     total energy              =      -2.21688863 Ry
     estimated scf accuracy    <       0.00000010 Ry

     iteration # 97     ecut=    10.00 Ry     beta= 0.70
     Davidson diagonalization with overlap

---- Real-time Memory Report at c_bands before calling an iterative solver
           132 MiB given to the printing process from OS
             0 MiB allocation reported by mallinfo(arena+hblkhd)
           442 MiB available memory on the node where the printing process lives
------------------
     ethr =  1.74E-09,  avg # of iterations =  4.0

     negative rho (up, down):  3.865E-01 0.000E+00

     total cpu time spent up to now is       53.2 secs

     total energy              =      -2.21682961 Ry
     estimated scf accuracy    <       0.00000025 Ry

     iteration # 98     ecut=    10.00 Ry     beta= 0.70
     Davidson diagonalization with overlap

---- Real-time Memory Report at c_bands before calling an iterative solver
           132 MiB given to the printing process from OS
             0 MiB allocation reported by mallinfo(arena+hblkhd)
           442 MiB available memory on the node where the printing process lives
------------------
     ethr =  1.74E-09,  avg # of iterations =  4.0

     negative rho (up, down):  3.865E-01 0.000E+00

     total cpu time spent up to now is       53.5 secs

     total energy              =      -2.21682154 Ry
     estimated scf accuracy    <       0.00000016 Ry

     iteration # 99     ecut=    10.00 Ry     beta= 0.70
     Davidson diagonalization with overlap

---- Real-time Memory Report at c_bands before calling an iterative solver
           132 MiB given to the printing process from OS
             0 MiB allocation reported by mallinfo(arena+hblkhd)
           442 MiB available memory on the node where the printing process lives
------------------
     ethr =  1.74E-09,  avg # of iterations =  4.0

     negative rho (up, down):  3.865E-01 0.000E+00

     total cpu time spent up to now is       53.7 secs

     total energy              =      -2.21689493 Ry
     estimated scf accuracy    <       0.00000007 Ry

     iteration #100     ecut=    10.00 Ry     beta= 0.70
     Davidson diagonalization with overlap

---- Real-time Memory Report at c_bands before calling an iterative solver
           132 MiB given to the printing process from OS
             0 MiB allocation reported by mallinfo(arena+hblkhd)
           442 MiB available memory on the node where the printing process lives
------------------
     ethr =  1.74E-09,  avg # of iterations =  4.0

     negative rho (up, down):  3.865E-01 0.000E+00

     total cpu time spent up to now is       53.9 secs

     total energy              =      -2.21685556 Ry
     estimated scf accuracy    <       0.00000027 Ry

     End of self-consistent calculation

     convergence NOT achieved after 100 iterations: stopping

     Writing config to output data dir ./.save/
     Message from routine punch:
     wavefunctions written to file

     init_run     :      0.22s CPU      0.23s WALL (       1 calls)
     electrons    :     52.16s CPU     52.38s WALL (       7 calls)
     update_pot   :      0.86s CPU      0.89s WALL (       6 calls)
     forces       :      0.30s CPU      0.31s WALL (       6 calls)

     Called by init_run:
     wfcinit      :      0.01s CPU      0.02s WALL (       1 calls)
     wfcinit:atom :      0.00s CPU      0.00s WALL (       1 calls)
     wfcinit:wfcr :      0.01s CPU      0.01s WALL (       1 calls)
     potinit      :      0.14s CPU      0.14s WALL (       1 calls)
     hinit0       :      0.01s CPU      0.01s WALL (       1 calls)

     Called by electrons:
     c_bands      :     10.90s CPU     10.95s WALL (     231 calls)
     sum_band     :      5.71s CPU      5.74s WALL (     231 calls)
     v_of_rho     :     28.49s CPU     28.58s WALL (     236 calls)
     v_h          :      1.53s CPU      1.54s WALL (     236 calls)
     v_xc         :     26.96s CPU     27.04s WALL (     236 calls)
     newd         :      1.90s CPU      1.91s WALL (     236 calls)
     mix_rho      :      5.45s CPU      5.49s WALL (     231 calls)

     Called by c_bands:
     init_us_2    :      0.17s CPU      0.17s WALL (     463 calls)
     init_us_2:cp :      0.17s CPU      0.17s WALL (     463 calls)
     cegterg      :     10.78s CPU     10.82s WALL (     231 calls)

     Called by sum_band:
     sum_band:wei :      0.00s CPU      0.00s WALL (     231 calls)
     sum_band:loo :      1.58s CPU      1.59s WALL (     231 calls)
     sum_band:buf :      0.00s CPU      0.00s WALL (     231 calls)
     sum_band:ini :      0.09s CPU      0.09s WALL (     231 calls)
     sum_band:cal :      0.02s CPU      0.02s WALL (     231 calls)
     sum_band:bec :      0.00s CPU      0.00s WALL (     231 calls)
     addusdens    :      0.52s CPU      0.52s WALL (     231 calls)
     addusd:skk   :      0.16s CPU      0.16s WALL (     231 calls)
     addusd:dgemm :      0.11s CPU      0.11s WALL (     231 calls)
     addusd:qvan2 :      0.12s CPU      0.13s WALL (     231 calls)

     Called by *egterg:
     cdiaghg      :      0.02s CPU      0.02s WALL (    1014 calls)
     cegterg:over :      0.15s CPU      0.16s WALL (     791 calls)
     cegterg:upda :      0.12s CPU      0.12s WALL (     791 calls)
     cegterg:last :      0.23s CPU      0.23s WALL (     624 calls)
     h_psi        :     10.02s CPU     10.06s WALL (    1023 calls)
     s_psi        :      0.06s CPU      0.06s WALL (    1023 calls)
     g_psi        :      0.05s CPU      0.06s WALL (     791 calls)

     Called by h_psi:
     h_psi:calbec :      0.08s CPU      0.08s WALL (    1023 calls)
     vloc_psi     :      9.84s CPU      9.88s WALL (    1023 calls)
     add_vuspsi   :      0.06s CPU      0.06s WALL (    1023 calls)

     General routines
     calbec       :      0.10s CPU      0.10s WALL (    1278 calls)
     fft          :     13.40s CPU     13.42s WALL (    2616 calls)
     ffts         :      1.18s CPU      1.18s WALL (     231 calls)
     fftw         :     10.24s CPU     10.28s WALL (    3662 calls)
     davcio       :      0.00s CPU      0.01s WALL (      19 calls)


     PWSCF        :     53.70s CPU     53.98s WALL


   This run was terminated on:   2:56:41  28Feb2022            

=------------------------------------------------------------------------------=
   JOB DONE.
=------------------------------------------------------------------------------=
