
     Program PWSCF v.7.0 starts on 28Feb2022 at  2:54: 5 

     This program is part of the open-source Quantum ESPRESSO suite
     for quantum simulation of materials; please cite
         "P. Giannozzi et al., J. Phys.:Condens. Matter 21 395502 (2009);
         "P. Giannozzi et al., J. Phys.:Condens. Matter 29 465901 (2017);
         "P. Giannozzi et al., J. Chem. Phys. 152 154105 (2020);
          URL http://www.quantum-espresso.org", 
     in publications or presentations arising from this work. More details at
     http://www.quantum-espresso.org/quote

     Serial version
     564 MiB available memory on the printing compute node when the environment starts

     Waiting for input...
     Reading input from standard input

     Current dimensions of program PWSCF are:
     Max number of different atomic species (ntypx) = 10
     Max number of k-points (npk) =  40000
     Max angular momentum in pseudopotentials (lmaxx) =  4

    ============================================================
    |  pseudopotential report for atomic species:  1           |
    |        pseudo potential version   7   3   2              |
    ------------------------------------------------------------
    |  hydrogen            PBE                  exchange-corr  |
    |  z =   1.    zv( 1) =   1.    exfact =   5.00000         |
    |  ifpcor =  0           atomic energy =  -0.91772 Ry      |
    |  index    orbital      occupation    energy              |
    |    1        100           1.00       -0.48               |
    |  rinner =  0.5000                                        |
    |    new generation scheme:                                |
    |    nbeta =  1     kkbeta =  271     rcloc =    0.6000    |
    |    ibeta    l     epsilon   rcut                         |
    |      1       0      -0.48   0.80                         |
    ============================================================

     IMPORTANT: XC functional enforced from input :
     Exchange-correlation= BLYP
                           (   1   3   1   3   0   0   0)
     Any further DFT definition will be discarded
     Please, verify this is what you really want


     G-vector sticks info
     --------------------
     sticks:   dense  smooth     PW     G-vecs:    dense   smooth      PW
     Sum        1433    1433    421                40651    40651    6451

     Using Slab Decomposition



     bravais-lattice index     =            1
     lattice parameter (alat)  =      30.0000  a.u.
     unit-cell volume          =   27000.0000 (a.u.)^3
     number of atoms/cell      =            2
     number of atomic types    =            1
     number of electrons       =         2.00
     number of Kohn-Sham states=            2
     kinetic-energy cutoff     =       5.0000  Ry
     charge density cutoff     =      20.0000  Ry
     scf convergence threshold =      1.0E-08
     mixing beta               =       0.7000
     number of iterations used =            8  plain     mixing
     energy convergence thresh.=      1.0E-04
     force convergence thresh. =      1.0E-03
     Exchange-correlation= BLYP
                           (   1   3   1   3   0   0   0)
     nstep                     =           50


     celldm(1)=  30.000000  celldm(2)=   0.000000  celldm(3)=   0.000000
     celldm(4)=   0.000000  celldm(5)=   0.000000  celldm(6)=   0.000000

     crystal axes: (cart. coord. in units of alat)
               a(1) = (   1.000000   0.000000   0.000000 )  
               a(2) = (   0.000000   1.000000   0.000000 )  
               a(3) = (   0.000000   0.000000   1.000000 )  

     reciprocal axes: (cart. coord. in units 2 pi/alat)
               b(1) = (  1.000000  0.000000  0.000000 )  
               b(2) = (  0.000000  1.000000  0.000000 )  
               b(3) = (  0.000000  0.000000  1.000000 )  


     PseudoPot. # 1 for hy read from file:
     /root/q-e/pseudo/H_US.van
     MD5 check sum: a9a9bfe98ff56cf4de197d71fc46bb44
     Pseudo is Ultrasoft, Zval =  1.0
     Generated by Vanderbilt code, v. 7.3.2
     Using radial grid of  399 points,  1 beta functions with: 
                l(1) =   0
     Q(r) pseudized with  8 coefficients,  rinner =    0.500

     atomic species   valence    mass     pseudopotential
        H              1.00     1.00784     hy( 1.00)

      8 Sym. Ops. (no inversion) found


                                    s                        frac. trans.

      isym =  1     identity                                     

 cryst.   s( 1) = (     1          0          0      )
                  (     0          1          0      )
                  (     0          0          1      )

 cart.    s( 1) = (  1.0000000  0.0000000  0.0000000 )
                  (  0.0000000  1.0000000  0.0000000 )
                  (  0.0000000  0.0000000  1.0000000 )


      isym =  2     180 deg rotation - cart. axis [1,0,0]        

 cryst.   s( 2) = (     1          0          0      )
                  (     0         -1          0      )
                  (     0          0         -1      )

 cart.    s( 2) = (  1.0000000  0.0000000  0.0000000 )
                  (  0.0000000 -1.0000000  0.0000000 )
                  (  0.0000000  0.0000000 -1.0000000 )


      isym =  3      90 deg rotation - cart. axis [-1,0,0]       

 cryst.   s( 3) = (     1          0          0      )
                  (     0          0         -1      )
                  (     0          1          0      )

 cart.    s( 3) = (  1.0000000  0.0000000  0.0000000 )
                  (  0.0000000  0.0000000  1.0000000 )
                  (  0.0000000 -1.0000000  0.0000000 )


      isym =  4      90 deg rotation - cart. axis [1,0,0]        

 cryst.   s( 4) = (     1          0          0      )
                  (     0          0          1      )
                  (     0         -1          0      )

 cart.    s( 4) = (  1.0000000  0.0000000  0.0000000 )
                  (  0.0000000  0.0000000 -1.0000000 )
                  (  0.0000000  1.0000000  0.0000000 )


      isym =  5     inv. 180 deg rotation - cart. axis [0,0,1]   

 cryst.   s( 5) = (     1          0          0      )
                  (     0          1          0      )
                  (     0          0         -1      )

 cart.    s( 5) = (  1.0000000  0.0000000  0.0000000 )
                  (  0.0000000  1.0000000  0.0000000 )
                  (  0.0000000  0.0000000 -1.0000000 )


      isym =  6     inv. 180 deg rotation - cart. axis [0,1,0]   

 cryst.   s( 6) = (     1          0          0      )
                  (     0         -1          0      )
                  (     0          0          1      )

 cart.    s( 6) = (  1.0000000  0.0000000  0.0000000 )
                  (  0.0000000 -1.0000000  0.0000000 )
                  (  0.0000000  0.0000000  1.0000000 )


      isym =  7     inv. 180 deg rotation - cart. axis [0,1,1]   

 cryst.   s( 7) = (     1          0          0      )
                  (     0          0         -1      )
                  (     0         -1          0      )

 cart.    s( 7) = (  1.0000000  0.0000000  0.0000000 )
                  (  0.0000000  0.0000000 -1.0000000 )
                  (  0.0000000 -1.0000000  0.0000000 )


      isym =  8     inv. 180 deg rotation - cart. axis [0,1,-1]  

 cryst.   s( 8) = (     1          0          0      )
                  (     0          0          1      )
                  (     0          1          0      )

 cart.    s( 8) = (  1.0000000  0.0000000  0.0000000 )
                  (  0.0000000  0.0000000  1.0000000 )
                  (  0.0000000  1.0000000  0.0000000 )


     point group C_4v (4mm) 
     there are  5 classes
     the character table:

       E     2C4   C2    2s_v  2s_d 
A_1    1.00  1.00  1.00  1.00  1.00
A_2    1.00  1.00  1.00 -1.00 -1.00
B_1    1.00 -1.00  1.00  1.00 -1.00
B_2    1.00 -1.00  1.00 -1.00  1.00
E      2.00  0.00 -2.00  0.00  0.00

     the symmetry operations in each class and the name of the first element:

     E        1
          identity                                               
     2C4      3    4
           90 deg rotation - cart. axis [-1,0,0]                 
     C2       2
          180 deg rotation - cart. axis [1,0,0]                  
     2s_v     5    6
          inv. 180 deg rotation - cart. axis [0,0,1]             
     2s_d     7    8
          inv. 180 deg rotation - cart. axis [0,1,1]             

   Cartesian axes

     site n.     atom                  positions (alat units)
         1           H   tau(   1) = (   0.0000000   0.0000000   0.0000000  )
         2           H   tau(   2) = (   0.0478731   0.0000000   0.0000000  )

   Crystallographic axes

     site n.     atom                  positions (cryst. coord.)
         1           H   tau(   1) = (  0.0000000  0.0000000  0.0000000  )
         2           H   tau(   2) = (  0.0478731  0.0000000  0.0000000  )

     number of k points=     1
                       cart. coord. in units 2pi/alat
        k(    1) = (  -0.5000000  -0.5000000  -0.5000000), wk =   2.0000000

                       cryst. coord.
        k(    1) = (  -0.5000000  -0.5000000  -0.5000000), wk =   2.0000000

     Dense  grid:    40651 G-vectors     FFT dimensions: (  45,  45,  45)

     Dynamical RAM for                 wfc:       0.16 MB

     Dynamical RAM for     wfc (w. buffer):       0.16 MB

     Dynamical RAM for           str. fact:       0.62 MB

     Dynamical RAM for           local pot:       0.00 MB

     Dynamical RAM for          nlocal pot:       0.16 MB

     Dynamical RAM for                qrad:       0.00 MB

     Dynamical RAM for          rho,v,vnew:       3.95 MB

     Dynamical RAM for               rhoin:       1.32 MB

     Dynamical RAM for            rho*nmix:       9.92 MB

     Dynamical RAM for           G-vectors:       2.64 MB

     Dynamical RAM for          h,s,v(r/c):       0.00 MB

     Dynamical RAM for          <psi|beta>:       0.00 MB

     Dynamical RAM for                 psi:       0.31 MB

     Dynamical RAM for                hpsi:       0.31 MB

     Dynamical RAM for                spsi:       0.31 MB

     Dynamical RAM for      wfcinit/wfcrot:       0.31 MB

     Dynamical RAM for           addusdens:       3.72 MB

     Dynamical RAM for          addusforce:       5.27 MB

     Estimated static dynamical RAM per process >      13.55 MB

     Estimated max dynamical RAM per process >      28.75 MB

     Initial potential from superposition of free atoms

     starting charge       2.0000, renormalised to       2.0000

     negative rho (up, down):  5.248E-01 0.000E+00
     Starting wfcs are    2 randomized atomic wfcs

     total cpu time spent up to now is        0.1 secs

     Self-consistent Calculation

     iteration #  1     ecut=     5.00 Ry     beta= 0.70
     Davidson diagonalization with overlap

---- Real-time Memory Report at c_bands before calling an iterative solver
            41 MiB given to the printing process from OS
             0 MiB allocation reported by mallinfo(arena+hblkhd)
           543 MiB available memory on the node where the printing process lives
------------------
     ethr =  1.00E-02,  avg # of iterations =  5.0

     negative rho (up, down):  4.338E-01 0.000E+00

     total cpu time spent up to now is        0.2 secs

     total energy              =      -2.03402513 Ry
     estimated scf accuracy    <       0.03695348 Ry

     iteration #  2     ecut=     5.00 Ry     beta= 0.70
     Davidson diagonalization with overlap

---- Real-time Memory Report at c_bands before calling an iterative solver
            47 MiB given to the printing process from OS
             0 MiB allocation reported by mallinfo(arena+hblkhd)
           530 MiB available memory on the node where the printing process lives
------------------
     ethr =  1.85E-03,  avg # of iterations =  4.0

     negative rho (up, down):  3.956E-01 0.000E+00

     total cpu time spent up to now is        0.2 secs

     total energy              =      -2.04676029 Ry
     estimated scf accuracy    <       0.00225671 Ry

     iteration #  3     ecut=     5.00 Ry     beta= 0.70
     Davidson diagonalization with overlap

---- Real-time Memory Report at c_bands before calling an iterative solver
            49 MiB given to the printing process from OS
             0 MiB allocation reported by mallinfo(arena+hblkhd)
           529 MiB available memory on the node where the printing process lives
------------------
     ethr =  1.13E-04,  avg # of iterations =  6.0

     negative rho (up, down):  3.929E-01 0.000E+00

     total cpu time spent up to now is        0.3 secs

     total energy              =      -2.04818849 Ry
     estimated scf accuracy    <       0.00032132 Ry

     iteration #  4     ecut=     5.00 Ry     beta= 0.70
     Davidson diagonalization with overlap

---- Real-time Memory Report at c_bands before calling an iterative solver
            50 MiB given to the printing process from OS
             0 MiB allocation reported by mallinfo(arena+hblkhd)
           528 MiB available memory on the node where the printing process lives
------------------
     ethr =  1.61E-05,  avg # of iterations =  5.0

     negative rho (up, down):  3.873E-01 0.000E+00

     total cpu time spent up to now is        0.4 secs

     total energy              =      -2.05049805 Ry
     estimated scf accuracy    <       0.00003920 Ry

     iteration #  5     ecut=     5.00 Ry     beta= 0.70
     Davidson diagonalization with overlap

---- Real-time Memory Report at c_bands before calling an iterative solver
            51 MiB given to the printing process from OS
             0 MiB allocation reported by mallinfo(arena+hblkhd)
           526 MiB available memory on the node where the printing process lives
------------------
     c_bands:  1 eigenvalues not converged
     ethr =  1.96E-06,  avg # of iterations = 20.0

     negative rho (up, down):  3.833E-01 0.000E+00

     total cpu time spent up to now is        0.5 secs

     total energy              =      -2.05121883 Ry
     estimated scf accuracy    <       0.00059420 Ry

     iteration #  6     ecut=     5.00 Ry     beta= 0.70
     Davidson diagonalization with overlap

---- Real-time Memory Report at c_bands before calling an iterative solver
            52 MiB given to the printing process from OS
             0 MiB allocation reported by mallinfo(arena+hblkhd)
           525 MiB available memory on the node where the printing process lives
------------------
     ethr =  1.96E-06,  avg # of iterations =  7.0

     negative rho (up, down):  3.845E-01 0.000E+00

     total cpu time spent up to now is        0.6 secs

     total energy              =      -2.05123083 Ry
     estimated scf accuracy    <       0.00002684 Ry

     iteration #  7     ecut=     5.00 Ry     beta= 0.70
     Davidson diagonalization with overlap

---- Real-time Memory Report at c_bands before calling an iterative solver
            53 MiB given to the printing process from OS
             0 MiB allocation reported by mallinfo(arena+hblkhd)
           524 MiB available memory on the node where the printing process lives
------------------
     ethr =  1.34E-06,  avg # of iterations =  8.0

     negative rho (up, down):  3.844E-01 0.000E+00

     total cpu time spent up to now is        0.7 secs

     total energy              =      -2.05171121 Ry
     estimated scf accuracy    <       0.00000248 Ry

     iteration #  8     ecut=     5.00 Ry     beta= 0.70
     Davidson diagonalization with overlap

---- Real-time Memory Report at c_bands before calling an iterative solver
            55 MiB given to the printing process from OS
             0 MiB allocation reported by mallinfo(arena+hblkhd)
           523 MiB available memory on the node where the printing process lives
------------------
     ethr =  1.24E-07,  avg # of iterations =  2.0

     negative rho (up, down):  3.841E-01 0.000E+00

     total cpu time spent up to now is        0.8 secs

     total energy              =      -2.05192761 Ry
     estimated scf accuracy    <       0.00000154 Ry

     iteration #  9     ecut=     5.00 Ry     beta= 0.70
     Davidson diagonalization with overlap

---- Real-time Memory Report at c_bands before calling an iterative solver
            56 MiB given to the printing process from OS
             0 MiB allocation reported by mallinfo(arena+hblkhd)
           521 MiB available memory on the node where the printing process lives
------------------
     ethr =  7.72E-08,  avg # of iterations =  3.0

     negative rho (up, down):  3.842E-01 0.000E+00

     total cpu time spent up to now is        0.8 secs

     total energy              =      -2.05191061 Ry
     estimated scf accuracy    <       0.00000241 Ry

     iteration # 10     ecut=     5.00 Ry     beta= 0.70
     Davidson diagonalization with overlap

---- Real-time Memory Report at c_bands before calling an iterative solver
            57 MiB given to the printing process from OS
             0 MiB allocation reported by mallinfo(arena+hblkhd)
           520 MiB available memory on the node where the printing process lives
------------------
     ethr =  7.72E-08,  avg # of iterations =  4.0

     negative rho (up, down):  3.840E-01 0.000E+00

     total cpu time spent up to now is        0.9 secs

     total energy              =      -2.05190269 Ry
     estimated scf accuracy    <       0.00000257 Ry

     iteration # 11     ecut=     5.00 Ry     beta= 0.70
     Davidson diagonalization with overlap

---- Real-time Memory Report at c_bands before calling an iterative solver
            57 MiB given to the printing process from OS
             0 MiB allocation reported by mallinfo(arena+hblkhd)
           520 MiB available memory on the node where the printing process lives
------------------
     ethr =  7.72E-08,  avg # of iterations =  4.0

     negative rho (up, down):  3.841E-01 0.000E+00

     total cpu time spent up to now is        1.0 secs

     total energy              =      -2.05197125 Ry
     estimated scf accuracy    <       0.00000167 Ry

     iteration # 12     ecut=     5.00 Ry     beta= 0.70
     Davidson diagonalization with overlap

---- Real-time Memory Report at c_bands before calling an iterative solver
            57 MiB given to the printing process from OS
             0 MiB allocation reported by mallinfo(arena+hblkhd)
           520 MiB available memory on the node where the printing process lives
------------------
     ethr =  7.72E-08,  avg # of iterations =  2.0

     negative rho (up, down):  3.842E-01 0.000E+00

     total cpu time spent up to now is        1.1 secs

     total energy              =      -2.05196996 Ry
     estimated scf accuracy    <       0.00000104 Ry

     iteration # 13     ecut=     5.00 Ry     beta= 0.70
     Davidson diagonalization with overlap

---- Real-time Memory Report at c_bands before calling an iterative solver
            57 MiB given to the printing process from OS
             0 MiB allocation reported by mallinfo(arena+hblkhd)
           520 MiB available memory on the node where the printing process lives
------------------
     ethr =  5.18E-08,  avg # of iterations =  2.0

     negative rho (up, down):  3.842E-01 0.000E+00

     total cpu time spent up to now is        1.1 secs

     total energy              =      -2.05189817 Ry
     estimated scf accuracy    <       0.00000110 Ry

     iteration # 14     ecut=     5.00 Ry     beta= 0.70
     Davidson diagonalization with overlap

---- Real-time Memory Report at c_bands before calling an iterative solver
            57 MiB given to the printing process from OS
             0 MiB allocation reported by mallinfo(arena+hblkhd)
           520 MiB available memory on the node where the printing process lives
------------------
     ethr =  5.18E-08,  avg # of iterations =  3.0

     negative rho (up, down):  3.843E-01 0.000E+00

     total cpu time spent up to now is        1.2 secs

     total energy              =      -2.05189927 Ry
     estimated scf accuracy    <       0.00000008 Ry

     iteration # 15     ecut=     5.00 Ry     beta= 0.70
     Davidson diagonalization with overlap

---- Real-time Memory Report at c_bands before calling an iterative solver
            57 MiB given to the printing process from OS
             0 MiB allocation reported by mallinfo(arena+hblkhd)
           520 MiB available memory on the node where the printing process lives
------------------
     ethr =  4.07E-09,  avg # of iterations =  3.0

     negative rho (up, down):  3.842E-01 0.000E+00

     total cpu time spent up to now is        1.3 secs

     total energy              =      -2.05189923 Ry
     estimated scf accuracy    <       0.00000004 Ry

     iteration # 16     ecut=     5.00 Ry     beta= 0.70
     Davidson diagonalization with overlap

---- Real-time Memory Report at c_bands before calling an iterative solver
            57 MiB given to the printing process from OS
             0 MiB allocation reported by mallinfo(arena+hblkhd)
           520 MiB available memory on the node where the printing process lives
------------------
     ethr =  2.15E-09,  avg # of iterations =  4.0

     negative rho (up, down):  3.843E-01 0.000E+00

     total cpu time spent up to now is        1.3 secs

     total energy              =      -2.05189809 Ry
     estimated scf accuracy    <       0.00000039 Ry

     iteration # 17     ecut=     5.00 Ry     beta= 0.70
     Davidson diagonalization with overlap

---- Real-time Memory Report at c_bands before calling an iterative solver
            57 MiB given to the printing process from OS
             0 MiB allocation reported by mallinfo(arena+hblkhd)
           520 MiB available memory on the node where the printing process lives
------------------
     ethr =  2.15E-09,  avg # of iterations =  2.0

     negative rho (up, down):  3.844E-01 0.000E+00

     total cpu time spent up to now is        1.4 secs

     total energy              =      -2.05185024 Ry
     estimated scf accuracy    <       0.00000028 Ry

     iteration # 18     ecut=     5.00 Ry     beta= 0.70
     Davidson diagonalization with overlap

---- Real-time Memory Report at c_bands before calling an iterative solver
            57 MiB given to the printing process from OS
             0 MiB allocation reported by mallinfo(arena+hblkhd)
           520 MiB available memory on the node where the printing process lives
------------------
     ethr =  2.15E-09,  avg # of iterations =  4.0

     negative rho (up, down):  3.843E-01 0.000E+00

     total cpu time spent up to now is        1.5 secs

     total energy              =      -2.05185119 Ry
     estimated scf accuracy    <       0.00000148 Ry

     iteration # 19     ecut=     5.00 Ry     beta= 0.70
     Davidson diagonalization with overlap

---- Real-time Memory Report at c_bands before calling an iterative solver
            57 MiB given to the printing process from OS
             0 MiB allocation reported by mallinfo(arena+hblkhd)
           520 MiB available memory on the node where the printing process lives
------------------
     ethr =  2.15E-09,  avg # of iterations =  4.0

     negative rho (up, down):  3.843E-01 0.000E+00

     total cpu time spent up to now is        1.6 secs

     total energy              =      -2.05190137 Ry
     estimated scf accuracy    <       0.00000020 Ry

     iteration # 20     ecut=     5.00 Ry     beta= 0.70
     Davidson diagonalization with overlap

---- Real-time Memory Report at c_bands before calling an iterative solver
            57 MiB given to the printing process from OS
             0 MiB allocation reported by mallinfo(arena+hblkhd)
           520 MiB available memory on the node where the printing process lives
------------------
     ethr =  2.15E-09,  avg # of iterations =  3.0

     negative rho (up, down):  3.843E-01 0.000E+00

     total cpu time spent up to now is        1.7 secs

     total energy              =      -2.05190849 Ry
     estimated scf accuracy    <       0.00000020 Ry

     iteration # 21     ecut=     5.00 Ry     beta= 0.70
     Davidson diagonalization with overlap

---- Real-time Memory Report at c_bands before calling an iterative solver
            57 MiB given to the printing process from OS
             0 MiB allocation reported by mallinfo(arena+hblkhd)
           520 MiB available memory on the node where the printing process lives
------------------
     ethr =  2.15E-09,  avg # of iterations =  2.0

     negative rho (up, down):  3.844E-01 0.000E+00

     total cpu time spent up to now is        1.7 secs

     total energy              =      -2.05186960 Ry
     estimated scf accuracy    <       0.00000020 Ry

     iteration # 22     ecut=     5.00 Ry     beta= 0.70
     Davidson diagonalization with overlap

---- Real-time Memory Report at c_bands before calling an iterative solver
            57 MiB given to the printing process from OS
             0 MiB allocation reported by mallinfo(arena+hblkhd)
           520 MiB available memory on the node where the printing process lives
------------------
     ethr =  2.15E-09,  avg # of iterations =  4.0

     negative rho (up, down):  3.844E-01 0.000E+00

     total cpu time spent up to now is        1.8 secs

     total energy              =      -2.05187702 Ry
     estimated scf accuracy    <       0.00000015 Ry

     iteration # 23     ecut=     5.00 Ry     beta= 0.70
     Davidson diagonalization with overlap

---- Real-time Memory Report at c_bands before calling an iterative solver
            57 MiB given to the printing process from OS
             0 MiB allocation reported by mallinfo(arena+hblkhd)
           520 MiB available memory on the node where the printing process lives
------------------
     ethr =  2.15E-09,  avg # of iterations =  4.0

     negative rho (up, down):  3.844E-01 0.000E+00

     total cpu time spent up to now is        1.9 secs

     total energy              =      -2.05186925 Ry
     estimated scf accuracy    <       0.00000022 Ry

     iteration # 24     ecut=     5.00 Ry     beta= 0.70
     Davidson diagonalization with overlap

---- Real-time Memory Report at c_bands before calling an iterative solver
            57 MiB given to the printing process from OS
             0 MiB allocation reported by mallinfo(arena+hblkhd)
           520 MiB available memory on the node where the printing process lives
------------------
     ethr =  2.15E-09,  avg # of iterations =  3.0

     negative rho (up, down):  3.844E-01 0.000E+00

     total cpu time spent up to now is        1.9 secs

     total energy              =      -2.05186435 Ry
     estimated scf accuracy    <       0.00000017 Ry

     iteration # 25     ecut=     5.00 Ry     beta= 0.70
     Davidson diagonalization with overlap

---- Real-time Memory Report at c_bands before calling an iterative solver
            57 MiB given to the printing process from OS
             0 MiB allocation reported by mallinfo(arena+hblkhd)
           520 MiB available memory on the node where the printing process lives
------------------
     ethr =  2.15E-09,  avg # of iterations =  3.0

     negative rho (up, down):  3.843E-01 0.000E+00

     total cpu time spent up to now is        2.0 secs

     total energy              =      -2.05189525 Ry
     estimated scf accuracy    <       0.00000014 Ry

     iteration # 26     ecut=     5.00 Ry     beta= 0.70
     Davidson diagonalization with overlap

---- Real-time Memory Report at c_bands before calling an iterative solver
            57 MiB given to the printing process from OS
             0 MiB allocation reported by mallinfo(arena+hblkhd)
           520 MiB available memory on the node where the printing process lives
------------------
     ethr =  2.15E-09,  avg # of iterations =  4.0

     negative rho (up, down):  3.842E-01 0.000E+00

     total cpu time spent up to now is        2.1 secs

     total energy              =      -2.05191899 Ry
     estimated scf accuracy    <       0.00000020 Ry

     iteration # 27     ecut=     5.00 Ry     beta= 0.70
     Davidson diagonalization with overlap

---- Real-time Memory Report at c_bands before calling an iterative solver
            57 MiB given to the printing process from OS
             0 MiB allocation reported by mallinfo(arena+hblkhd)
           520 MiB available memory on the node where the printing process lives
------------------
     ethr =  2.15E-09,  avg # of iterations =  3.0

     negative rho (up, down):  3.843E-01 0.000E+00

     total cpu time spent up to now is        2.2 secs

     total energy              =      -2.05189059 Ry
     estimated scf accuracy    <       0.00000015 Ry

     iteration # 28     ecut=     5.00 Ry     beta= 0.70
     Davidson diagonalization with overlap

---- Real-time Memory Report at c_bands before calling an iterative solver
            57 MiB given to the printing process from OS
             0 MiB allocation reported by mallinfo(arena+hblkhd)
           520 MiB available memory on the node where the printing process lives
------------------
     ethr =  2.15E-09,  avg # of iterations =  3.0

     negative rho (up, down):  3.833E-01 0.000E+00

     total cpu time spent up to now is        2.2 secs

     total energy              =      -2.05213892 Ry
     estimated scf accuracy    <       0.00000024 Ry

     iteration # 29     ecut=     5.00 Ry     beta= 0.70
     Davidson diagonalization with overlap

---- Real-time Memory Report at c_bands before calling an iterative solver
            57 MiB given to the printing process from OS
             0 MiB allocation reported by mallinfo(arena+hblkhd)
           520 MiB available memory on the node where the printing process lives
------------------
     ethr =  2.15E-09,  avg # of iterations =  5.0

     negative rho (up, down):  3.838E-01 0.000E+00

     total cpu time spent up to now is        2.3 secs

     total energy              =      -2.05205086 Ry
     estimated scf accuracy    <       0.00000312 Ry

     iteration # 30     ecut=     5.00 Ry     beta= 0.70
     Davidson diagonalization with overlap

---- Real-time Memory Report at c_bands before calling an iterative solver
            57 MiB given to the printing process from OS
             0 MiB allocation reported by mallinfo(arena+hblkhd)
           520 MiB available memory on the node where the printing process lives
------------------
     ethr =  2.15E-09,  avg # of iterations =  3.0

     negative rho (up, down):  3.841E-01 0.000E+00

     total cpu time spent up to now is        2.4 secs

     total energy              =      -2.05194393 Ry
     estimated scf accuracy    <       0.00000038 Ry

     iteration # 31     ecut=     5.00 Ry     beta= 0.70
     Davidson diagonalization with overlap

---- Real-time Memory Report at c_bands before calling an iterative solver
            57 MiB given to the printing process from OS
             0 MiB allocation reported by mallinfo(arena+hblkhd)
           520 MiB available memory on the node where the printing process lives
------------------
     ethr =  2.15E-09,  avg # of iterations =  4.0

     negative rho (up, down):  3.840E-01 0.000E+00

     total cpu time spent up to now is        2.5 secs

     total energy              =      -2.05199719 Ry
     estimated scf accuracy    <       0.00000010 Ry

     iteration # 32     ecut=     5.00 Ry     beta= 0.70
     Davidson diagonalization with overlap

---- Real-time Memory Report at c_bands before calling an iterative solver
            57 MiB given to the printing process from OS
             0 MiB allocation reported by mallinfo(arena+hblkhd)
           520 MiB available memory on the node where the printing process lives
------------------
     ethr =  2.15E-09,  avg # of iterations =  3.0

     negative rho (up, down):  3.841E-01 0.000E+00

     total cpu time spent up to now is        2.5 secs

     total energy              =      -2.05194404 Ry
     estimated scf accuracy    <       0.00000008 Ry

     iteration # 33     ecut=     5.00 Ry     beta= 0.70
     Davidson diagonalization with overlap

---- Real-time Memory Report at c_bands before calling an iterative solver
            57 MiB given to the printing process from OS
             0 MiB allocation reported by mallinfo(arena+hblkhd)
           520 MiB available memory on the node where the printing process lives
------------------
     ethr =  2.15E-09,  avg # of iterations =  3.0

     negative rho (up, down):  3.841E-01 0.000E+00

     total cpu time spent up to now is        2.6 secs

     total energy              =      -2.05193463 Ry
     estimated scf accuracy    <       0.00000004 Ry

     iteration # 34     ecut=     5.00 Ry     beta= 0.70
     Davidson diagonalization with overlap

---- Real-time Memory Report at c_bands before calling an iterative solver
            57 MiB given to the printing process from OS
             0 MiB allocation reported by mallinfo(arena+hblkhd)
           520 MiB available memory on the node where the printing process lives
------------------
     ethr =  1.96E-09,  avg # of iterations =  3.0

     negative rho (up, down):  3.841E-01 0.000E+00

     total cpu time spent up to now is        2.7 secs

     total energy              =      -2.05194778 Ry
     estimated scf accuracy    <       0.00000004 Ry

     iteration # 35     ecut=     5.00 Ry     beta= 0.70
     Davidson diagonalization with overlap

---- Real-time Memory Report at c_bands before calling an iterative solver
            57 MiB given to the printing process from OS
             0 MiB allocation reported by mallinfo(arena+hblkhd)
           520 MiB available memory on the node where the printing process lives
------------------
     ethr =  1.95E-09,  avg # of iterations =  2.0

     negative rho (up, down):  3.841E-01 0.000E+00

     total cpu time spent up to now is        2.8 secs

     total energy              =      -2.05197218 Ry
     estimated scf accuracy    <       0.00000004 Ry

     iteration # 36     ecut=     5.00 Ry     beta= 0.70
     Davidson diagonalization with overlap

---- Real-time Memory Report at c_bands before calling an iterative solver
            57 MiB given to the printing process from OS
             0 MiB allocation reported by mallinfo(arena+hblkhd)
           520 MiB available memory on the node where the printing process lives
------------------
     ethr =  1.95E-09,  avg # of iterations =  3.0

     negative rho (up, down):  3.841E-01 0.000E+00

     total cpu time spent up to now is        2.8 secs

     total energy              =      -2.05194908 Ry
     estimated scf accuracy    <       0.00000002 Ry

     iteration # 37     ecut=     5.00 Ry     beta= 0.70
     Davidson diagonalization with overlap

---- Real-time Memory Report at c_bands before calling an iterative solver
            57 MiB given to the printing process from OS
             0 MiB allocation reported by mallinfo(arena+hblkhd)
           520 MiB available memory on the node where the printing process lives
------------------
     ethr =  7.77E-10,  avg # of iterations =  3.0

     negative rho (up, down):  3.841E-01 0.000E+00

     total cpu time spent up to now is        2.9 secs

     total energy              =      -2.05197334 Ry
     estimated scf accuracy    <       0.00000004 Ry

     iteration # 38     ecut=     5.00 Ry     beta= 0.70
     Davidson diagonalization with overlap

---- Real-time Memory Report at c_bands before calling an iterative solver
            57 MiB given to the printing process from OS
             0 MiB allocation reported by mallinfo(arena+hblkhd)
           520 MiB available memory on the node where the printing process lives
------------------
     ethr =  7.77E-10,  avg # of iterations =  3.0

     negative rho (up, down):  3.842E-01 0.000E+00

     total cpu time spent up to now is        3.0 secs

     total energy              =      -2.05191543 Ry
     estimated scf accuracy    <       0.00000002 Ry

     iteration # 39     ecut=     5.00 Ry     beta= 0.70
     Davidson diagonalization with overlap

---- Real-time Memory Report at c_bands before calling an iterative solver
            57 MiB given to the printing process from OS
             0 MiB allocation reported by mallinfo(arena+hblkhd)
           520 MiB available memory on the node where the printing process lives
------------------
     ethr =  7.75E-10,  avg # of iterations =  4.0

     negative rho (up, down):  3.843E-01 0.000E+00

     total cpu time spent up to now is        3.1 secs

     total energy              =      -2.05189736 Ry
     estimated scf accuracy    <       0.00000003 Ry

     iteration # 40     ecut=     5.00 Ry     beta= 0.70
     Davidson diagonalization with overlap

---- Real-time Memory Report at c_bands before calling an iterative solver
            57 MiB given to the printing process from OS
             0 MiB allocation reported by mallinfo(arena+hblkhd)
           520 MiB available memory on the node where the printing process lives
------------------
     ethr =  7.75E-10,  avg # of iterations =  3.0

     negative rho (up, down):  3.843E-01 0.000E+00

     total cpu time spent up to now is        3.1 secs

     total energy              =      -2.05188307 Ry
     estimated scf accuracy    <       0.00000003 Ry

     iteration # 41     ecut=     5.00 Ry     beta= 0.70
     Davidson diagonalization with overlap

---- Real-time Memory Report at c_bands before calling an iterative solver
            57 MiB given to the printing process from OS
             0 MiB allocation reported by mallinfo(arena+hblkhd)
           520 MiB available memory on the node where the printing process lives
------------------
     ethr =  7.75E-10,  avg # of iterations =  3.0

     negative rho (up, down):  3.844E-01 0.000E+00

     total cpu time spent up to now is        3.2 secs

     total energy              =      -2.05185825 Ry
     estimated scf accuracy    <       0.00000004 Ry

     iteration # 42     ecut=     5.00 Ry     beta= 0.70
     Davidson diagonalization with overlap

---- Real-time Memory Report at c_bands before calling an iterative solver
            57 MiB given to the printing process from OS
             0 MiB allocation reported by mallinfo(arena+hblkhd)
           520 MiB available memory on the node where the printing process lives
------------------
     ethr =  7.75E-10,  avg # of iterations =  4.0

     negative rho (up, down):  3.841E-01 0.000E+00

     total cpu time spent up to now is        3.3 secs

     total energy              =      -2.05194009 Ry
     estimated scf accuracy    <       0.00000006 Ry

     iteration # 43     ecut=     5.00 Ry     beta= 0.70
     Davidson diagonalization with overlap

---- Real-time Memory Report at c_bands before calling an iterative solver
            57 MiB given to the printing process from OS
             0 MiB allocation reported by mallinfo(arena+hblkhd)
           520 MiB available memory on the node where the printing process lives
------------------
     ethr =  7.75E-10,  avg # of iterations =  4.0

     negative rho (up, down):  3.840E-01 0.000E+00

     total cpu time spent up to now is        3.3 secs

     total energy              =      -2.05198981 Ry
     estimated scf accuracy    <       0.00000005 Ry

     iteration # 44     ecut=     5.00 Ry     beta= 0.70
     Davidson diagonalization with overlap

---- Real-time Memory Report at c_bands before calling an iterative solver
            57 MiB given to the printing process from OS
             0 MiB allocation reported by mallinfo(arena+hblkhd)
           520 MiB available memory on the node where the printing process lives
------------------
     ethr =  7.75E-10,  avg # of iterations =  4.0

     negative rho (up, down):  3.842E-01 0.000E+00

     total cpu time spent up to now is        3.4 secs

     total energy              =      -2.05190540 Ry
     estimated scf accuracy    <       0.00000004 Ry

     iteration # 45     ecut=     5.00 Ry     beta= 0.70
     Davidson diagonalization with overlap

---- Real-time Memory Report at c_bands before calling an iterative solver
            57 MiB given to the printing process from OS
             0 MiB allocation reported by mallinfo(arena+hblkhd)
           520 MiB available memory on the node where the printing process lives
------------------
     ethr =  7.75E-10,  avg # of iterations =  4.0

     negative rho (up, down):  3.843E-01 0.000E+00

     total cpu time spent up to now is        3.5 secs

     total energy              =      -2.05187966 Ry
     estimated scf accuracy    <       0.00000003 Ry

     iteration # 46     ecut=     5.00 Ry     beta= 0.70
     Davidson diagonalization with overlap

---- Real-time Memory Report at c_bands before calling an iterative solver
            57 MiB given to the printing process from OS
             0 MiB allocation reported by mallinfo(arena+hblkhd)
           520 MiB available memory on the node where the printing process lives
------------------
     ethr =  7.75E-10,  avg # of iterations =  4.0

     negative rho (up, down):  3.843E-01 0.000E+00

     total cpu time spent up to now is        3.6 secs

     total energy              =      -2.05188718 Ry
     estimated scf accuracy    <       0.00000004 Ry

     iteration # 47     ecut=     5.00 Ry     beta= 0.70
     Davidson diagonalization with overlap

---- Real-time Memory Report at c_bands before calling an iterative solver
            57 MiB given to the printing process from OS
             0 MiB allocation reported by mallinfo(arena+hblkhd)
           520 MiB available memory on the node where the printing process lives
------------------
     ethr =  7.75E-10,  avg # of iterations =  3.0

     negative rho (up, down):  3.843E-01 0.000E+00

     total cpu time spent up to now is        3.6 secs

     total energy              =      -2.05187933 Ry
     estimated scf accuracy    <       0.00000004 Ry

     iteration # 48     ecut=     5.00 Ry     beta= 0.70
     Davidson diagonalization with overlap

---- Real-time Memory Report at c_bands before calling an iterative solver
            57 MiB given to the printing process from OS
             0 MiB allocation reported by mallinfo(arena+hblkhd)
           520 MiB available memory on the node where the printing process lives
------------------
     ethr =  7.75E-10,  avg # of iterations =  3.0

     negative rho (up, down):  3.843E-01 0.000E+00

     total cpu time spent up to now is        3.7 secs

     total energy              =      -2.05189526 Ry
     estimated scf accuracy    <       0.00000004 Ry

     iteration # 49     ecut=     5.00 Ry     beta= 0.70
     Davidson diagonalization with overlap

---- Real-time Memory Report at c_bands before calling an iterative solver
            57 MiB given to the printing process from OS
             0 MiB allocation reported by mallinfo(arena+hblkhd)
           520 MiB available memory on the node where the printing process lives
------------------
     ethr =  7.75E-10,  avg # of iterations =  3.0

     negative rho (up, down):  3.840E-01 0.000E+00

     total cpu time spent up to now is        3.8 secs

     total energy              =      -2.05198985 Ry
     estimated scf accuracy    <       0.00000004 Ry

     iteration # 50     ecut=     5.00 Ry     beta= 0.70
     Davidson diagonalization with overlap

---- Real-time Memory Report at c_bands before calling an iterative solver
            57 MiB given to the printing process from OS
             0 MiB allocation reported by mallinfo(arena+hblkhd)
           520 MiB available memory on the node where the printing process lives
------------------
     ethr =  7.75E-10,  avg # of iterations =  4.0

     negative rho (up, down):  3.849E-01 0.000E+00

     total cpu time spent up to now is        3.9 secs

     total energy              =      -2.05181066 Ry
     estimated scf accuracy    <       0.00000004 Ry

     iteration # 51     ecut=     5.00 Ry     beta= 0.70
     Davidson diagonalization with overlap

---- Real-time Memory Report at c_bands before calling an iterative solver
            57 MiB given to the printing process from OS
             0 MiB allocation reported by mallinfo(arena+hblkhd)
           520 MiB available memory on the node where the printing process lives
------------------
     ethr =  7.75E-10,  avg # of iterations =  5.0

     negative rho (up, down):  3.842E-01 0.000E+00

     total cpu time spent up to now is        3.9 secs

     total energy              =      -2.05189847 Ry
     estimated scf accuracy    <       0.00000956 Ry

     iteration # 52     ecut=     5.00 Ry     beta= 0.70
     Davidson diagonalization with overlap

---- Real-time Memory Report at c_bands before calling an iterative solver
            57 MiB given to the printing process from OS
             0 MiB allocation reported by mallinfo(arena+hblkhd)
           520 MiB available memory on the node where the printing process lives
------------------
     ethr =  7.75E-10,  avg # of iterations =  5.0

     negative rho (up, down):  3.841E-01 0.000E+00

     total cpu time spent up to now is        4.0 secs

     total energy              =      -2.05194362 Ry
     estimated scf accuracy    <       0.00000004 Ry

     iteration # 53     ecut=     5.00 Ry     beta= 0.70
     Davidson diagonalization with overlap

---- Real-time Memory Report at c_bands before calling an iterative solver
            57 MiB given to the printing process from OS
             0 MiB allocation reported by mallinfo(arena+hblkhd)
           520 MiB available memory on the node where the printing process lives
------------------
     ethr =  7.75E-10,  avg # of iterations =  3.0

     negative rho (up, down):  3.839E-01 0.000E+00

     total cpu time spent up to now is        4.1 secs

     total energy              =      -2.05201498 Ry
     estimated scf accuracy    <       0.00000004 Ry

     iteration # 54     ecut=     5.00 Ry     beta= 0.70
     Davidson diagonalization with overlap

---- Real-time Memory Report at c_bands before calling an iterative solver
            57 MiB given to the printing process from OS
             0 MiB allocation reported by mallinfo(arena+hblkhd)
           520 MiB available memory on the node where the printing process lives
------------------
     ethr =  7.75E-10,  avg # of iterations =  4.0

     negative rho (up, down):  3.840E-01 0.000E+00

     total cpu time spent up to now is        4.2 secs

     total energy              =      -2.05199641 Ry
     estimated scf accuracy    <       0.00000009 Ry

     iteration # 55     ecut=     5.00 Ry     beta= 0.70
     Davidson diagonalization with overlap

---- Real-time Memory Report at c_bands before calling an iterative solver
            57 MiB given to the printing process from OS
             0 MiB allocation reported by mallinfo(arena+hblkhd)
           520 MiB available memory on the node where the printing process lives
------------------
     ethr =  7.75E-10,  avg # of iterations =  3.0

     negative rho (up, down):  3.841E-01 0.000E+00

     total cpu time spent up to now is        4.2 secs

     total energy              =      -2.05197432 Ry
     estimated scf accuracy    <       0.00000004 Ry

     iteration # 56     ecut=     5.00 Ry     beta= 0.70
     Davidson diagonalization with overlap

---- Real-time Memory Report at c_bands before calling an iterative solver
            57 MiB given to the printing process from OS
             0 MiB allocation reported by mallinfo(arena+hblkhd)
           520 MiB available memory on the node where the printing process lives
------------------
     ethr =  7.75E-10,  avg # of iterations =  3.0

     negative rho (up, down):  3.841E-01 0.000E+00

     total cpu time spent up to now is        4.3 secs

     total energy              =      -2.05196866 Ry
     estimated scf accuracy    <       0.00000002 Ry

     iteration # 57     ecut=     5.00 Ry     beta= 0.70
     Davidson diagonalization with overlap

---- Real-time Memory Report at c_bands before calling an iterative solver
            57 MiB given to the printing process from OS
             0 MiB allocation reported by mallinfo(arena+hblkhd)
           520 MiB available memory on the node where the printing process lives
------------------
     ethr =  7.75E-10,  avg # of iterations =  2.0

     negative rho (up, down):  3.841E-01 0.000E+00

     total cpu time spent up to now is        4.4 secs

     total energy              =      -2.05195050 Ry
     estimated scf accuracy    <       0.00000002 Ry

     iteration # 58     ecut=     5.00 Ry     beta= 0.70
     Davidson diagonalization with overlap

---- Real-time Memory Report at c_bands before calling an iterative solver
            57 MiB given to the printing process from OS
             0 MiB allocation reported by mallinfo(arena+hblkhd)
           520 MiB available memory on the node where the printing process lives
------------------
     ethr =  7.75E-10,  avg # of iterations =  3.0

     negative rho (up, down):  3.842E-01 0.000E+00

     total cpu time spent up to now is        4.4 secs

     total energy              =      -2.05192181 Ry
     estimated scf accuracy    <       0.00000005 Ry

     iteration # 59     ecut=     5.00 Ry     beta= 0.70
     Davidson diagonalization with overlap

---- Real-time Memory Report at c_bands before calling an iterative solver
            57 MiB given to the printing process from OS
             0 MiB allocation reported by mallinfo(arena+hblkhd)
           520 MiB available memory on the node where the printing process lives
------------------
     ethr =  7.75E-10,  avg # of iterations =  3.0

     negative rho (up, down):  3.841E-01 0.000E+00

     total cpu time spent up to now is        4.5 secs

     total energy              =      -2.05192915 Ry
     estimated scf accuracy    <       0.00000004 Ry

     iteration # 60     ecut=     5.00 Ry     beta= 0.70
     Davidson diagonalization with overlap

---- Real-time Memory Report at c_bands before calling an iterative solver
            57 MiB given to the printing process from OS
             0 MiB allocation reported by mallinfo(arena+hblkhd)
           520 MiB available memory on the node where the printing process lives
------------------
     ethr =  7.75E-10,  avg # of iterations =  2.0

     negative rho (up, down):  3.842E-01 0.000E+00

     total cpu time spent up to now is        4.6 secs

     total energy              =      -2.05190862 Ry
     estimated scf accuracy    <       0.00000004 Ry

     iteration # 61     ecut=     5.00 Ry     beta= 0.70
     Davidson diagonalization with overlap

---- Real-time Memory Report at c_bands before calling an iterative solver
            57 MiB given to the printing process from OS
             0 MiB allocation reported by mallinfo(arena+hblkhd)
           520 MiB available memory on the node where the printing process lives
------------------
     ethr =  7.75E-10,  avg # of iterations =  3.0

     negative rho (up, down):  3.842E-01 0.000E+00

     total cpu time spent up to now is        4.7 secs

     total energy              =      -2.05190029 Ry
     estimated scf accuracy    <       0.00000004 Ry

     iteration # 62     ecut=     5.00 Ry     beta= 0.70
     Davidson diagonalization with overlap

---- Real-time Memory Report at c_bands before calling an iterative solver
            57 MiB given to the printing process from OS
             0 MiB allocation reported by mallinfo(arena+hblkhd)
           520 MiB available memory on the node where the printing process lives
------------------
     ethr =  7.75E-10,  avg # of iterations =  3.0

     negative rho (up, down):  3.842E-01 0.000E+00

     total cpu time spent up to now is        4.7 secs

     total energy              =      -2.05189984 Ry
     estimated scf accuracy    <       0.00000004 Ry

     iteration # 63     ecut=     5.00 Ry     beta= 0.70
     Davidson diagonalization with overlap

---- Real-time Memory Report at c_bands before calling an iterative solver
            57 MiB given to the printing process from OS
             0 MiB allocation reported by mallinfo(arena+hblkhd)
           520 MiB available memory on the node where the printing process lives
------------------
     ethr =  7.75E-10,  avg # of iterations =  1.0

     negative rho (up, down):  3.843E-01 0.000E+00

     total cpu time spent up to now is        4.8 secs

     total energy              =      -2.05189673 Ry
     estimated scf accuracy    <       0.00000004 Ry

     iteration # 64     ecut=     5.00 Ry     beta= 0.70
     Davidson diagonalization with overlap

---- Real-time Memory Report at c_bands before calling an iterative solver
            57 MiB given to the printing process from OS
             0 MiB allocation reported by mallinfo(arena+hblkhd)
           520 MiB available memory on the node where the printing process lives
------------------
     ethr =  7.75E-10,  avg # of iterations =  2.0

     negative rho (up, down):  3.843E-01 0.000E+00

     total cpu time spent up to now is        4.9 secs

     total energy              =      -2.05189944 Ry
     estimated scf accuracy    <       0.00000004 Ry

     iteration # 65     ecut=     5.00 Ry     beta= 0.70
     Davidson diagonalization with overlap

---- Real-time Memory Report at c_bands before calling an iterative solver
            57 MiB given to the printing process from OS
             0 MiB allocation reported by mallinfo(arena+hblkhd)
           520 MiB available memory on the node where the printing process lives
------------------
     ethr =  7.75E-10,  avg # of iterations =  2.0

     negative rho (up, down):  3.843E-01 0.000E+00

     total cpu time spent up to now is        4.9 secs

     total energy              =      -2.05188597 Ry
     estimated scf accuracy    <       0.00000003 Ry

     iteration # 66     ecut=     5.00 Ry     beta= 0.70
     Davidson diagonalization with overlap

---- Real-time Memory Report at c_bands before calling an iterative solver
            57 MiB given to the printing process from OS
             0 MiB allocation reported by mallinfo(arena+hblkhd)
           520 MiB available memory on the node where the printing process lives
------------------
     ethr =  7.75E-10,  avg # of iterations =  3.0

     negative rho (up, down):  3.850E-01 0.000E+00

     total cpu time spent up to now is        5.0 secs

     total energy              =      -2.05176974 Ry
     estimated scf accuracy    <       0.00000003 Ry

     iteration # 67     ecut=     5.00 Ry     beta= 0.70
     Davidson diagonalization with overlap

---- Real-time Memory Report at c_bands before calling an iterative solver
            57 MiB given to the printing process from OS
             0 MiB allocation reported by mallinfo(arena+hblkhd)
           520 MiB available memory on the node where the printing process lives
------------------
     ethr =  7.75E-10,  avg # of iterations =  7.0

     negative rho (up, down):  3.845E-01 0.000E+00

     total cpu time spent up to now is        5.1 secs

     total energy              =      -2.05112346 Ry
     estimated scf accuracy    <       0.00011748 Ry

     iteration # 68     ecut=     5.00 Ry     beta= 0.70
     Davidson diagonalization with overlap

---- Real-time Memory Report at c_bands before calling an iterative solver
            57 MiB given to the printing process from OS
             0 MiB allocation reported by mallinfo(arena+hblkhd)
           520 MiB available memory on the node where the printing process lives
------------------
     ethr =  7.75E-10,  avg # of iterations =  7.0

     negative rho (up, down):  3.844E-01 0.000E+00

     total cpu time spent up to now is        5.2 secs

     total energy              =      -2.05189838 Ry
     estimated scf accuracy    <       0.00000005 Ry

     iteration # 69     ecut=     5.00 Ry     beta= 0.70
     Davidson diagonalization with overlap

---- Real-time Memory Report at c_bands before calling an iterative solver
            57 MiB given to the printing process from OS
             0 MiB allocation reported by mallinfo(arena+hblkhd)
           520 MiB available memory on the node where the printing process lives
------------------
     ethr =  7.75E-10,  avg # of iterations =  4.0

     negative rho (up, down):  3.843E-01 0.000E+00

     total cpu time spent up to now is        5.3 secs

     total energy              =      -2.05189077 Ry
     estimated scf accuracy    <       0.00000002 Ry

     iteration # 70     ecut=     5.00 Ry     beta= 0.70
     Davidson diagonalization with overlap

---- Real-time Memory Report at c_bands before calling an iterative solver
            57 MiB given to the printing process from OS
             0 MiB allocation reported by mallinfo(arena+hblkhd)
           520 MiB available memory on the node where the printing process lives
------------------
     ethr =  7.75E-10,  avg # of iterations =  4.0

     negative rho (up, down):  3.843E-01 0.000E+00

     total cpu time spent up to now is        5.3 secs

     total energy              =      -2.05188414 Ry
     estimated scf accuracy    <       0.00000002 Ry

     iteration # 71     ecut=     5.00 Ry     beta= 0.70
     Davidson diagonalization with overlap

---- Real-time Memory Report at c_bands before calling an iterative solver
            57 MiB given to the printing process from OS
             0 MiB allocation reported by mallinfo(arena+hblkhd)
           520 MiB available memory on the node where the printing process lives
------------------
     ethr =  7.75E-10,  avg # of iterations =  3.0

     negative rho (up, down):  3.843E-01 0.000E+00

     total cpu time spent up to now is        5.4 secs

     total energy              =      -2.05189926 Ry
     estimated scf accuracy    <       0.00000002 Ry

     iteration # 72     ecut=     5.00 Ry     beta= 0.70
     Davidson diagonalization with overlap

---- Real-time Memory Report at c_bands before calling an iterative solver
            57 MiB given to the printing process from OS
             0 MiB allocation reported by mallinfo(arena+hblkhd)
           520 MiB available memory on the node where the printing process lives
------------------
     ethr =  7.75E-10,  avg # of iterations =  3.0

     negative rho (up, down):  3.844E-01 0.000E+00

     total cpu time spent up to now is        5.5 secs

     End of self-consistent calculation

          k =-0.5000-0.5000-0.5000 (  5040 PWs)   bands (ev):

   -10.3757  -1.4418

     occupation numbers 
     1.0000   0.0000

     highest occupied, lowest unoccupied level (ev):   -10.3757   -1.4418

!    total energy              =      -2.05187396 Ry
     estimated scf accuracy    <          7.3E-09 Ry

     The total energy is the sum of the following terms:
     one-electron contribution =      -3.84519088 Ry
     hartree contribution      =       2.04142073 Ry
     xc contribution           =      -1.26269016 Ry
     ewald contribution        =       1.01458636 Ry

     convergence has been achieved in  72 iterations

     Forces acting on atoms (cartesian axes, Ry/au):

     atom    1 type  1   force =    -0.20815225    0.00000000    0.00000000
     atom    2 type  1   force =     0.20815225    0.00000000    0.00000000
     The non-local contrib.  to forces
     atom    1 type  1   force =     0.04547677    0.00000000    0.00000000
     atom    2 type  1   force =    -0.05847982    0.00000000    0.00000000
     The ionic contribution  to forces
     atom    1 type  1   force =    -0.96917919   -0.00000000   -0.00000000
     atom    2 type  1   force =     0.96917919    0.00000000   -0.00000000
     The local contribution  to forces
     atom    1 type  1   force =     0.70750296    0.00000000    0.00000000
     atom    2 type  1   force =    -0.71027511    0.00000000    0.00000000
     The core correction contribution to forces
     atom    1 type  1   force =     0.00000000    0.00000000    0.00000000
     atom    2 type  1   force =     0.00000000    0.00000000    0.00000000
     The Hubbard contrib.    to forces
     atom    1 type  1   force =     0.00000000    0.00000000    0.00000000
     atom    2 type  1   force =     0.00000000    0.00000000    0.00000000
     The SCF correction term to forces
     atom    1 type  1   force =     0.00030370    0.00000000   -0.00000000
     atom    2 type  1   force =    -0.00001551    0.00000000   -0.00000000

     Total force =     0.294372     Total SCF correction =     0.000304

     BFGS Geometry Optimization
     Energy error            =      0.0E+00 Ry
     Gradient error          =      2.1E-01 Ry/Bohr

     number of scf cycles    =   1
     number of bfgs steps    =   0

     energy             new  =      -2.0518739567 Ry

     new trust radius        =       0.2081522494 bohr
     new conv_thr            =       0.0000000100 Ry


ATOMIC_POSITIONS (angstrom)
H            -0.1101494268        0.0000000000        0.0000000000
H             0.8701494268        0.0000000000        0.0000000000



     Writing config-only to output data dir ./.save/
     NEW-OLD atomic charge density approx. for the potential

     negative rho (up, down):  4.326E-01 0.000E+00

     total cpu time spent up to now is        5.6 secs

     Self-consistent Calculation

     iteration #  1     ecut=     5.00 Ry     beta= 0.70
     Davidson diagonalization with overlap

---- Real-time Memory Report at c_bands before calling an iterative solver
            58 MiB given to the printing process from OS
             0 MiB allocation reported by mallinfo(arena+hblkhd)
           540 MiB available memory on the node where the printing process lives
------------------
     c_bands:  1 eigenvalues not converged
     ethr =  1.00E-06,  avg # of iterations = 20.0

     negative rho (up, down):  3.500E-01 0.000E+00

     total cpu time spent up to now is        5.7 secs

     total energy              =      -2.06575479 Ry
     estimated scf accuracy    <       0.00287635 Ry

     iteration #  2     ecut=     5.00 Ry     beta= 0.70
     Davidson diagonalization with overlap

---- Real-time Memory Report at c_bands before calling an iterative solver
            58 MiB given to the printing process from OS
             0 MiB allocation reported by mallinfo(arena+hblkhd)
           529 MiB available memory on the node where the printing process lives
------------------
     ethr =  1.44E-04,  avg # of iterations =  2.0

     negative rho (up, down):  3.282E-01 0.000E+00

     total cpu time spent up to now is        5.7 secs

     total energy              =      -2.07502167 Ry
     estimated scf accuracy    <       0.00009739 Ry

     iteration #  3     ecut=     5.00 Ry     beta= 0.70
     Davidson diagonalization with overlap

---- Real-time Memory Report at c_bands before calling an iterative solver
            58 MiB given to the printing process from OS
             0 MiB allocation reported by mallinfo(arena+hblkhd)
           528 MiB available memory on the node where the printing process lives
------------------
     ethr =  4.87E-06,  avg # of iterations =  7.0

     negative rho (up, down):  3.238E-01 0.000E+00

     total cpu time spent up to now is        5.8 secs

     total energy              =      -2.07668135 Ry
     estimated scf accuracy    <       0.00000388 Ry

     iteration #  4     ecut=     5.00 Ry     beta= 0.70
     Davidson diagonalization with overlap

---- Real-time Memory Report at c_bands before calling an iterative solver
            58 MiB given to the printing process from OS
             0 MiB allocation reported by mallinfo(arena+hblkhd)
           527 MiB available memory on the node where the printing process lives
------------------
     ethr =  1.94E-07,  avg # of iterations =  6.0

     negative rho (up, down):  3.229E-01 0.000E+00

     total cpu time spent up to now is        5.9 secs

     total energy              =      -2.07702402 Ry
     estimated scf accuracy    <       0.00000051 Ry

     iteration #  5     ecut=     5.00 Ry     beta= 0.70
     Davidson diagonalization with overlap

---- Real-time Memory Report at c_bands before calling an iterative solver
            58 MiB given to the printing process from OS
             0 MiB allocation reported by mallinfo(arena+hblkhd)
           525 MiB available memory on the node where the printing process lives
------------------
     ethr =  2.57E-08,  avg # of iterations =  3.0

     negative rho (up, down):  3.230E-01 0.000E+00

     total cpu time spent up to now is        6.0 secs

     total energy              =      -2.07698906 Ry
     estimated scf accuracy    <       0.00000014 Ry

     iteration #  6     ecut=     5.00 Ry     beta= 0.70
     Davidson diagonalization with overlap

---- Real-time Memory Report at c_bands before calling an iterative solver
            58 MiB given to the printing process from OS
             0 MiB allocation reported by mallinfo(arena+hblkhd)
           524 MiB available memory on the node where the printing process lives
------------------
     ethr =  7.11E-09,  avg # of iterations =  3.0

     negative rho (up, down):  3.230E-01 0.000E+00

     total cpu time spent up to now is        6.0 secs

     End of self-consistent calculation

          k =-0.5000-0.5000-0.5000 (  5040 PWs)   bands (ev):

    -9.4259  -1.4147

     occupation numbers 
     1.0000   0.0000

     highest occupied, lowest unoccupied level (ev):    -9.4259   -1.4147

!    total energy              =      -2.07699509 Ry
     estimated scf accuracy    <          6.3E-09 Ry

     The total energy is the sum of the following terms:
     one-electron contribution =      -3.45416280 Ry
     hartree contribution      =       1.84777216 Ry
     xc contribution           =      -1.17245779 Ry
     ewald contribution        =       0.70185333 Ry

     convergence has been achieved in   6 iterations

     Forces acting on atoms (cartesian axes, Ry/au):

     atom    1 type  1   force =     0.15044394    0.00000000    0.00000000
     atom    2 type  1   force =    -0.15044394    0.00000000    0.00000000
     The non-local contrib.  to forces
     atom    1 type  1   force =     0.09211036    0.00000000    0.00000000
     atom    2 type  1   force =    -0.09715174    0.00000000    0.00000000
     The ionic contribution  to forces
     atom    1 type  1   force =    -0.58221296    0.00000000   -0.00000000
     atom    2 type  1   force =     0.58221296    0.00000000   -0.00000000
     The local contribution  to forces
     atom    1 type  1   force =     0.63806956    0.00000000    0.00000000
     atom    2 type  1   force =    -0.63751096    0.00000000    0.00000000
     The core correction contribution to forces
     atom    1 type  1   force =     0.00000000    0.00000000    0.00000000
     atom    2 type  1   force =     0.00000000    0.00000000    0.00000000
     The Hubbard contrib.    to forces
     atom    1 type  1   force =     0.00000000    0.00000000    0.00000000
     atom    2 type  1   force =     0.00000000    0.00000000    0.00000000
     The SCF correction term to forces
     atom    1 type  1   force =     0.00052758    0.00000000    0.00000000
     atom    2 type  1   force =     0.00005641    0.00000000    0.00000000

     Total force =     0.212760     Total SCF correction =     0.000531
     Energy error            =      2.5E-02 Ry
     Gradient error          =      1.5E-01 Ry/Bohr

     number of scf cycles    =   2
     number of bfgs steps    =   1

     energy             old  =      -2.0518739567 Ry
     energy             new  =      -2.0769950905 Ry

     CASE: energy            _new < energy            _old

     new trust radius        =       0.0873273193 bohr
     new conv_thr            =       0.0000000100 Ry


ATOMIC_POSITIONS (angstrom)
H            -0.0639377996        0.0000000000        0.0000000000
H             0.8239377996        0.0000000000        0.0000000000



     Writing config-only to output data dir ./.save/
     NEW-OLD atomic charge density approx. for the potential

     negative rho (up, down):  3.279E-01 0.000E+00

     total cpu time spent up to now is        6.1 secs

     Self-consistent Calculation

     iteration #  1     ecut=     5.00 Ry     beta= 0.70
     Davidson diagonalization with overlap

---- Real-time Memory Report at c_bands before calling an iterative solver
            58 MiB given to the printing process from OS
             0 MiB allocation reported by mallinfo(arena+hblkhd)
           539 MiB available memory on the node where the printing process lives
------------------
     ethr =  1.00E-06,  avg # of iterations = 13.0

     negative rho (up, down):  3.452E-01 0.000E+00

     total cpu time spent up to now is        6.2 secs

     total energy              =      -2.08474905 Ry
     estimated scf accuracy    <       0.00028879 Ry

     iteration #  2     ecut=     5.00 Ry     beta= 0.70
     Davidson diagonalization with overlap

---- Real-time Memory Report at c_bands before calling an iterative solver
            58 MiB given to the printing process from OS
             0 MiB allocation reported by mallinfo(arena+hblkhd)
           528 MiB available memory on the node where the printing process lives
------------------
     ethr =  1.44E-05,  avg # of iterations =  3.0

     negative rho (up, down):  3.556E-01 0.000E+00

     total cpu time spent up to now is        6.3 secs

     total energy              =      -2.08072214 Ry
     estimated scf accuracy    <       0.00008772 Ry

     iteration #  3     ecut=     5.00 Ry     beta= 0.70
     Davidson diagonalization with overlap

---- Real-time Memory Report at c_bands before calling an iterative solver
            58 MiB given to the printing process from OS
             0 MiB allocation reported by mallinfo(arena+hblkhd)
           527 MiB available memory on the node where the printing process lives
------------------
     c_bands:  1 eigenvalues not converged
     ethr =  4.39E-06,  avg # of iterations = 20.0

     negative rho (up, down):  3.544E-01 0.000E+00

     total cpu time spent up to now is        6.4 secs

     total energy              =      -2.08052107 Ry
     estimated scf accuracy    <       0.00014574 Ry

     iteration #  4     ecut=     5.00 Ry     beta= 0.70
     Davidson diagonalization with overlap

---- Real-time Memory Report at c_bands before calling an iterative solver
            58 MiB given to the printing process from OS
             0 MiB allocation reported by mallinfo(arena+hblkhd)
           525 MiB available memory on the node where the printing process lives
------------------
     ethr =  4.39E-06,  avg # of iterations =  8.0

     negative rho (up, down):  3.556E-01 0.000E+00

     total cpu time spent up to now is        6.5 secs

     total energy              =      -2.08096777 Ry
     estimated scf accuracy    <       0.00001359 Ry

     iteration #  5     ecut=     5.00 Ry     beta= 0.70
     Davidson diagonalization with overlap

---- Real-time Memory Report at c_bands before calling an iterative solver
            58 MiB given to the printing process from OS
             0 MiB allocation reported by mallinfo(arena+hblkhd)
           524 MiB available memory on the node where the printing process lives
------------------
     ethr =  6.79E-07,  avg # of iterations = 14.0

     negative rho (up, down):  3.556E-01 0.000E+00

     total cpu time spent up to now is        6.6 secs

     total energy              =      -2.08106522 Ry
     estimated scf accuracy    <       0.00000452 Ry

     iteration #  6     ecut=     5.00 Ry     beta= 0.70
     Davidson diagonalization with overlap

---- Real-time Memory Report at c_bands before calling an iterative solver
            58 MiB given to the printing process from OS
             0 MiB allocation reported by mallinfo(arena+hblkhd)
           523 MiB available memory on the node where the printing process lives
------------------
     ethr =  2.26E-07,  avg # of iterations =  2.0

     negative rho (up, down):  3.559E-01 0.000E+00

     total cpu time spent up to now is        6.7 secs

     total energy              =      -2.08093669 Ry
     estimated scf accuracy    <       0.00000420 Ry

     iteration #  7     ecut=     5.00 Ry     beta= 0.70
     Davidson diagonalization with overlap

---- Real-time Memory Report at c_bands before calling an iterative solver
            58 MiB given to the printing process from OS
             0 MiB allocation reported by mallinfo(arena+hblkhd)
           522 MiB available memory on the node where the printing process lives
------------------
     ethr =  2.10E-07,  avg # of iterations =  2.0

     negative rho (up, down):  3.558E-01 0.000E+00

     total cpu time spent up to now is        6.7 secs

     total energy              =      -2.08098036 Ry
     estimated scf accuracy    <       0.00000265 Ry

     iteration #  8     ecut=     5.00 Ry     beta= 0.70
     Davidson diagonalization with overlap

---- Real-time Memory Report at c_bands before calling an iterative solver
            58 MiB given to the printing process from OS
             0 MiB allocation reported by mallinfo(arena+hblkhd)
           521 MiB available memory on the node where the printing process lives
------------------
     ethr =  1.32E-07,  avg # of iterations =  2.0

     negative rho (up, down):  3.556E-01 0.000E+00

     total cpu time spent up to now is        6.8 secs

     total energy              =      -2.08101809 Ry
     estimated scf accuracy    <       0.00000325 Ry

     iteration #  9     ecut=     5.00 Ry     beta= 0.70
     Davidson diagonalization with overlap

---- Real-time Memory Report at c_bands before calling an iterative solver
            58 MiB given to the printing process from OS
             0 MiB allocation reported by mallinfo(arena+hblkhd)
           519 MiB available memory on the node where the printing process lives
------------------
     ethr =  1.32E-07,  avg # of iterations =  2.0

     negative rho (up, down):  3.564E-01 0.000E+00

     total cpu time spent up to now is        6.9 secs

     total energy              =      -2.08081014 Ry
     estimated scf accuracy    <       0.00000376 Ry

     iteration # 10     ecut=     5.00 Ry     beta= 0.70
     Davidson diagonalization with overlap

---- Real-time Memory Report at c_bands before calling an iterative solver
            59 MiB given to the printing process from OS
             0 MiB allocation reported by mallinfo(arena+hblkhd)
           518 MiB available memory on the node where the printing process lives
------------------
     ethr =  1.32E-07,  avg # of iterations =  3.0

     negative rho (up, down):  3.576E-01 0.000E+00

     total cpu time spent up to now is        6.9 secs

     total energy              =      -2.08024325 Ry
     estimated scf accuracy    <       0.00000234 Ry

     iteration # 11     ecut=     5.00 Ry     beta= 0.70
     Davidson diagonalization with overlap

---- Real-time Memory Report at c_bands before calling an iterative solver
            59 MiB given to the printing process from OS
             0 MiB allocation reported by mallinfo(arena+hblkhd)
           518 MiB available memory on the node where the printing process lives
------------------
     ethr =  1.17E-07,  avg # of iterations =  8.0

     negative rho (up, down):  3.570E-01 0.000E+00

     total cpu time spent up to now is        7.0 secs

     total energy              =      -2.08092087 Ry
     estimated scf accuracy    <       0.00007372 Ry

     iteration # 12     ecut=     5.00 Ry     beta= 0.70
     Davidson diagonalization with overlap

---- Real-time Memory Report at c_bands before calling an iterative solver
            59 MiB given to the printing process from OS
             0 MiB allocation reported by mallinfo(arena+hblkhd)
           518 MiB available memory on the node where the printing process lives
------------------
     ethr =  1.17E-07,  avg # of iterations =  4.0

     negative rho (up, down):  3.559E-01 0.000E+00

     total cpu time spent up to now is        7.1 secs

     total energy              =      -2.08042442 Ry
     estimated scf accuracy    <       0.00007193 Ry

     iteration # 13     ecut=     5.00 Ry     beta= 0.70
     Davidson diagonalization with overlap

---- Real-time Memory Report at c_bands before calling an iterative solver
            59 MiB given to the printing process from OS
             0 MiB allocation reported by mallinfo(arena+hblkhd)
           518 MiB available memory on the node where the printing process lives
------------------
     ethr =  1.17E-07,  avg # of iterations =  8.0

     negative rho (up, down):  3.559E-01 0.000E+00

     total cpu time spent up to now is        7.2 secs

     total energy              =      -2.08100043 Ry
     estimated scf accuracy    <       0.00000190 Ry

     iteration # 14     ecut=     5.00 Ry     beta= 0.70
     Davidson diagonalization with overlap

---- Real-time Memory Report at c_bands before calling an iterative solver
            59 MiB given to the printing process from OS
             0 MiB allocation reported by mallinfo(arena+hblkhd)
           518 MiB available memory on the node where the printing process lives
------------------
     ethr =  9.50E-08,  avg # of iterations =  1.0

     negative rho (up, down):  3.548E-01 0.000E+00

     total cpu time spent up to now is        7.3 secs

     total energy              =      -2.08126736 Ry
     estimated scf accuracy    <       0.00000171 Ry

     iteration # 15     ecut=     5.00 Ry     beta= 0.70
     Davidson diagonalization with overlap

---- Real-time Memory Report at c_bands before calling an iterative solver
            59 MiB given to the printing process from OS
             0 MiB allocation reported by mallinfo(arena+hblkhd)
           518 MiB available memory on the node where the printing process lives
------------------
     ethr =  8.56E-08,  avg # of iterations =  3.0

     negative rho (up, down):  3.566E-01 0.000E+00

     total cpu time spent up to now is        7.3 secs

     total energy              =      -2.08071163 Ry
     estimated scf accuracy    <       0.00000585 Ry

     iteration # 16     ecut=     5.00 Ry     beta= 0.70
     Davidson diagonalization with overlap

---- Real-time Memory Report at c_bands before calling an iterative solver
            59 MiB given to the printing process from OS
             0 MiB allocation reported by mallinfo(arena+hblkhd)
           518 MiB available memory on the node where the printing process lives
------------------
     ethr =  8.56E-08,  avg # of iterations =  4.0

     negative rho (up, down):  3.521E-01 0.000E+00

     total cpu time spent up to now is        7.4 secs

     total energy              =      -2.08225052 Ry
     estimated scf accuracy    <       0.00000212 Ry

     iteration # 17     ecut=     5.00 Ry     beta= 0.70
     Davidson diagonalization with overlap

---- Real-time Memory Report at c_bands before calling an iterative solver
            59 MiB given to the printing process from OS
             0 MiB allocation reported by mallinfo(arena+hblkhd)
           518 MiB available memory on the node where the printing process lives
------------------
     ethr =  8.56E-08,  avg # of iterations =  5.0

     negative rho (up, down):  3.526E-01 0.000E+00

     total cpu time spent up to now is        7.5 secs

     total energy              =      -2.08204327 Ry
     estimated scf accuracy    <       0.00008266 Ry

     iteration # 18     ecut=     5.00 Ry     beta= 0.70
     Davidson diagonalization with overlap

---- Real-time Memory Report at c_bands before calling an iterative solver
            59 MiB given to the printing process from OS
[...]
------------------
     ethr =  1.77E-08,  avg # of iterations =  6.0

     negative rho (up, down):  3.567E-01 0.000E+00

     total cpu time spent up to now is       12.4 secs

     total energy              =      -2.08070860 Ry
     estimated scf accuracy    <       0.00000338 Ry

     iteration # 77     ecut=     5.00 Ry     beta= 0.70
     Davidson diagonalization with overlap

---- Real-time Memory Report at c_bands before calling an iterative solver
            59 MiB given to the printing process from OS
             0 MiB allocation reported by mallinfo(arena+hblkhd)
           518 MiB available memory on the node where the printing process lives
------------------
     ethr =  1.77E-08,  avg # of iterations =  5.0

     negative rho (up, down):  3.569E-01 0.000E+00

     total cpu time spent up to now is       12.4 secs

     total energy              =      -2.08073627 Ry
     estimated scf accuracy    <       0.00000156 Ry

     iteration # 78     ecut=     5.00 Ry     beta= 0.70
     Davidson diagonalization with overlap

---- Real-time Memory Report at c_bands before calling an iterative solver
            59 MiB given to the printing process from OS
             0 MiB allocation reported by mallinfo(arena+hblkhd)
           518 MiB available memory on the node where the printing process lives
------------------
     ethr =  1.77E-08,  avg # of iterations =  4.0

     negative rho (up, down):  3.566E-01 0.000E+00

     total cpu time spent up to now is       12.5 secs

     total energy              =      -2.08074944 Ry
     estimated scf accuracy    <       0.00000394 Ry

     iteration # 79     ecut=     5.00 Ry     beta= 0.70
     Davidson diagonalization with overlap

---- Real-time Memory Report at c_bands before calling an iterative solver
            59 MiB given to the printing process from OS
             0 MiB allocation reported by mallinfo(arena+hblkhd)
           518 MiB available memory on the node where the printing process lives
------------------
     ethr =  1.77E-08,  avg # of iterations =  4.0

     negative rho (up, down):  3.568E-01 0.000E+00

     total cpu time spent up to now is       12.6 secs

     total energy              =      -2.08073118 Ry
     estimated scf accuracy    <       0.00000191 Ry

     iteration # 80     ecut=     5.00 Ry     beta= 0.70
     Davidson diagonalization with overlap

---- Real-time Memory Report at c_bands before calling an iterative solver
            59 MiB given to the printing process from OS
             0 MiB allocation reported by mallinfo(arena+hblkhd)
           518 MiB available memory on the node where the printing process lives
------------------
     ethr =  1.77E-08,  avg # of iterations =  3.0

     negative rho (up, down):  3.566E-01 0.000E+00

     total cpu time spent up to now is       12.7 secs

     total energy              =      -2.08077668 Ry
     estimated scf accuracy    <       0.00000200 Ry

     iteration # 81     ecut=     5.00 Ry     beta= 0.70
     Davidson diagonalization with overlap

---- Real-time Memory Report at c_bands before calling an iterative solver
            59 MiB given to the printing process from OS
             0 MiB allocation reported by mallinfo(arena+hblkhd)
           518 MiB available memory on the node where the printing process lives
------------------
     ethr =  1.77E-08,  avg # of iterations =  3.0

     negative rho (up, down):  3.567E-01 0.000E+00

     total cpu time spent up to now is       12.7 secs

     total energy              =      -2.08076840 Ry
     estimated scf accuracy    <       0.00000192 Ry

     iteration # 82     ecut=     5.00 Ry     beta= 0.70
     Davidson diagonalization with overlap

---- Real-time Memory Report at c_bands before calling an iterative solver
            59 MiB given to the printing process from OS
             0 MiB allocation reported by mallinfo(arena+hblkhd)
           518 MiB available memory on the node where the printing process lives
------------------
     ethr =  1.77E-08,  avg # of iterations =  3.0

     negative rho (up, down):  3.558E-01 0.000E+00

     total cpu time spent up to now is       12.8 secs

     total energy              =      -2.08102427 Ry
     estimated scf accuracy    <       0.00000214 Ry

     iteration # 83     ecut=     5.00 Ry     beta= 0.70
     Davidson diagonalization with overlap

---- Real-time Memory Report at c_bands before calling an iterative solver
            59 MiB given to the printing process from OS
             0 MiB allocation reported by mallinfo(arena+hblkhd)
           518 MiB available memory on the node where the printing process lives
------------------
     ethr =  1.77E-08,  avg # of iterations =  4.0

     negative rho (up, down):  3.550E-01 0.000E+00

     total cpu time spent up to now is       12.9 secs

     total energy              =      -2.08119871 Ry
     estimated scf accuracy    <       0.00000789 Ry

     iteration # 84     ecut=     5.00 Ry     beta= 0.70
     Davidson diagonalization with overlap

---- Real-time Memory Report at c_bands before calling an iterative solver
            59 MiB given to the printing process from OS
             0 MiB allocation reported by mallinfo(arena+hblkhd)
           518 MiB available memory on the node where the printing process lives
------------------
     ethr =  1.77E-08,  avg # of iterations =  4.0

     negative rho (up, down):  3.577E-01 0.000E+00

     total cpu time spent up to now is       13.0 secs

     total energy              =      -2.08038119 Ry
     estimated scf accuracy    <       0.00000602 Ry

     iteration # 85     ecut=     5.00 Ry     beta= 0.70
     Davidson diagonalization with overlap

---- Real-time Memory Report at c_bands before calling an iterative solver
            59 MiB given to the printing process from OS
             0 MiB allocation reported by mallinfo(arena+hblkhd)
           518 MiB available memory on the node where the printing process lives
------------------
     ethr =  1.77E-08,  avg # of iterations =  5.0

     negative rho (up, down):  3.558E-01 0.000E+00

     total cpu time spent up to now is       13.1 secs

     total energy              =      -2.08090981 Ry
     estimated scf accuracy    <       0.00005283 Ry

     iteration # 86     ecut=     5.00 Ry     beta= 0.70
     Davidson diagonalization with overlap

---- Real-time Memory Report at c_bands before calling an iterative solver
            59 MiB given to the printing process from OS
             0 MiB allocation reported by mallinfo(arena+hblkhd)
           518 MiB available memory on the node where the printing process lives
------------------
     ethr =  1.77E-08,  avg # of iterations =  5.0

     negative rho (up, down):  3.563E-01 0.000E+00

     total cpu time spent up to now is       13.1 secs

     total energy              =      -2.08082539 Ry
     estimated scf accuracy    <       0.00000280 Ry

     iteration # 87     ecut=     5.00 Ry     beta= 0.70
     Davidson diagonalization with overlap

---- Real-time Memory Report at c_bands before calling an iterative solver
            59 MiB given to the printing process from OS
             0 MiB allocation reported by mallinfo(arena+hblkhd)
           518 MiB available memory on the node where the printing process lives
------------------
     ethr =  1.77E-08,  avg # of iterations =  4.0

     negative rho (up, down):  3.566E-01 0.000E+00

     total cpu time spent up to now is       13.2 secs

     total energy              =      -2.08076810 Ry
     estimated scf accuracy    <       0.00000150 Ry

     iteration # 88     ecut=     5.00 Ry     beta= 0.70
     Davidson diagonalization with overlap

---- Real-time Memory Report at c_bands before calling an iterative solver
            59 MiB given to the printing process from OS
             0 MiB allocation reported by mallinfo(arena+hblkhd)
           518 MiB available memory on the node where the printing process lives
------------------
     ethr =  1.77E-08,  avg # of iterations =  3.0

     negative rho (up, down):  3.566E-01 0.000E+00

     total cpu time spent up to now is       13.3 secs

     total energy              =      -2.08078212 Ry
     estimated scf accuracy    <       0.00000147 Ry

     iteration # 89     ecut=     5.00 Ry     beta= 0.70
     Davidson diagonalization with overlap

---- Real-time Memory Report at c_bands before calling an iterative solver
            59 MiB given to the printing process from OS
             0 MiB allocation reported by mallinfo(arena+hblkhd)
           518 MiB available memory on the node where the printing process lives
------------------
     ethr =  1.77E-08,  avg # of iterations =  2.0

     negative rho (up, down):  3.565E-01 0.000E+00

     total cpu time spent up to now is       13.3 secs

     total energy              =      -2.08080025 Ry
     estimated scf accuracy    <       0.00000124 Ry

     iteration # 90     ecut=     5.00 Ry     beta= 0.70
     Davidson diagonalization with overlap

---- Real-time Memory Report at c_bands before calling an iterative solver
            59 MiB given to the printing process from OS
             0 MiB allocation reported by mallinfo(arena+hblkhd)
           518 MiB available memory on the node where the printing process lives
------------------
     ethr =  1.77E-08,  avg # of iterations =  2.0

     negative rho (up, down):  3.565E-01 0.000E+00

     total cpu time spent up to now is       13.4 secs

     total energy              =      -2.08081201 Ry
     estimated scf accuracy    <       0.00000105 Ry

     iteration # 91     ecut=     5.00 Ry     beta= 0.70
     Davidson diagonalization with overlap

---- Real-time Memory Report at c_bands before calling an iterative solver
            59 MiB given to the printing process from OS
             0 MiB allocation reported by mallinfo(arena+hblkhd)
           518 MiB available memory on the node where the printing process lives
------------------
     ethr =  1.77E-08,  avg # of iterations =  2.0

     negative rho (up, down):  3.567E-01 0.000E+00

     total cpu time spent up to now is       13.5 secs

     total energy              =      -2.08073831 Ry
     estimated scf accuracy    <       0.00000104 Ry

     iteration # 92     ecut=     5.00 Ry     beta= 0.70
     Davidson diagonalization with overlap

---- Real-time Memory Report at c_bands before calling an iterative solver
            59 MiB given to the printing process from OS
             0 MiB allocation reported by mallinfo(arena+hblkhd)
           518 MiB available memory on the node where the printing process lives
------------------
     ethr =  1.77E-08,  avg # of iterations =  3.0

     negative rho (up, down):  3.566E-01 0.000E+00

     total cpu time spent up to now is       13.6 secs

     total energy              =      -2.08077447 Ry
     estimated scf accuracy    <       0.00000142 Ry

     iteration # 93     ecut=     5.00 Ry     beta= 0.70
     Davidson diagonalization with overlap

---- Real-time Memory Report at c_bands before calling an iterative solver
            59 MiB given to the printing process from OS
             0 MiB allocation reported by mallinfo(arena+hblkhd)
           518 MiB available memory on the node where the printing process lives
------------------
     ethr =  1.77E-08,  avg # of iterations =  3.0

     negative rho (up, down):  3.566E-01 0.000E+00

     total cpu time spent up to now is       13.6 secs

     total energy              =      -2.08079112 Ry
     estimated scf accuracy    <       0.00000195 Ry

     iteration # 94     ecut=     5.00 Ry     beta= 0.70
     Davidson diagonalization with overlap

---- Real-time Memory Report at c_bands before calling an iterative solver
            59 MiB given to the printing process from OS
             0 MiB allocation reported by mallinfo(arena+hblkhd)
           518 MiB available memory on the node where the printing process lives
------------------
     ethr =  1.77E-08,  avg # of iterations =  3.0

     negative rho (up, down):  3.565E-01 0.000E+00

     total cpu time spent up to now is       13.7 secs

     total energy              =      -2.08079625 Ry
     estimated scf accuracy    <       0.00000110 Ry

     iteration # 95     ecut=     5.00 Ry     beta= 0.70
     Davidson diagonalization with overlap

---- Real-time Memory Report at c_bands before calling an iterative solver
            59 MiB given to the printing process from OS
             0 MiB allocation reported by mallinfo(arena+hblkhd)
           518 MiB available memory on the node where the printing process lives
------------------
     ethr =  1.77E-08,  avg # of iterations =  3.0

     negative rho (up, down):  3.559E-01 0.000E+00

     total cpu time spent up to now is       13.8 secs

     total energy              =      -2.08094626 Ry
     estimated scf accuracy    <       0.00000177 Ry

     iteration # 96     ecut=     5.00 Ry     beta= 0.70
     Davidson diagonalization with overlap

---- Real-time Memory Report at c_bands before calling an iterative solver
            59 MiB given to the printing process from OS
             0 MiB allocation reported by mallinfo(arena+hblkhd)
           518 MiB available memory on the node where the printing process lives
------------------
     ethr =  1.77E-08,  avg # of iterations =  4.0

     negative rho (up, down):  3.560E-01 0.000E+00

     total cpu time spent up to now is       13.8 secs

     total energy              =      -2.08096612 Ry
     estimated scf accuracy    <       0.00000129 Ry

     iteration # 97     ecut=     5.00 Ry     beta= 0.70
     Davidson diagonalization with overlap

---- Real-time Memory Report at c_bands before calling an iterative solver
            59 MiB given to the printing process from OS
             0 MiB allocation reported by mallinfo(arena+hblkhd)
           518 MiB available memory on the node where the printing process lives
------------------
     ethr =  1.77E-08,  avg # of iterations =  2.0

     negative rho (up, down):  3.559E-01 0.000E+00

     total cpu time spent up to now is       13.9 secs

     total energy              =      -2.08100055 Ry
     estimated scf accuracy    <       0.00000074 Ry

     iteration # 98     ecut=     5.00 Ry     beta= 0.70
     Davidson diagonalization with overlap

---- Real-time Memory Report at c_bands before calling an iterative solver
            59 MiB given to the printing process from OS
             0 MiB allocation reported by mallinfo(arena+hblkhd)
           518 MiB available memory on the node where the printing process lives
------------------
     ethr =  1.77E-08,  avg # of iterations =  3.0

     negative rho (up, down):  3.568E-01 0.000E+00

     total cpu time spent up to now is       14.0 secs

     total energy              =      -2.08066267 Ry
     estimated scf accuracy    <       0.00000188 Ry

     iteration # 99     ecut=     5.00 Ry     beta= 0.70
     Davidson diagonalization with overlap

---- Real-time Memory Report at c_bands before calling an iterative solver
            59 MiB given to the printing process from OS
             0 MiB allocation reported by mallinfo(arena+hblkhd)
           518 MiB available memory on the node where the printing process lives
------------------
     ethr =  1.77E-08,  avg # of iterations =  4.0

     negative rho (up, down):  3.570E-01 0.000E+00

     total cpu time spent up to now is       14.1 secs

     total energy              =      -2.08066428 Ry
     estimated scf accuracy    <       0.00000802 Ry

     iteration #100     ecut=     5.00 Ry     beta= 0.70
     Davidson diagonalization with overlap

---- Real-time Memory Report at c_bands before calling an iterative solver
            59 MiB given to the printing process from OS
             0 MiB allocation reported by mallinfo(arena+hblkhd)
           518 MiB available memory on the node where the printing process lives
------------------
     ethr =  1.77E-08,  avg # of iterations =  5.0

     negative rho (up, down):  3.566E-01 0.000E+00

     total cpu time spent up to now is       14.1 secs

     total energy              =      -2.08055377 Ry
     estimated scf accuracy    <       0.00003941 Ry

     End of self-consistent calculation

     convergence NOT achieved after 100 iterations: stopping

     Writing config to output data dir ./.save/
     Message from routine punch:
     wavefunctions written to file

     init_run     :      0.07s CPU      0.08s WALL (       1 calls)
     electrons    :     13.83s CPU     13.90s WALL (       3 calls)
     update_pot   :      0.10s CPU      0.10s WALL (       2 calls)
     forces       :      0.03s CPU      0.03s WALL (       2 calls)

     Called by init_run:
     wfcinit      :      0.01s CPU      0.01s WALL (       1 calls)
     wfcinit:atom :      0.00s CPU      0.00s WALL (       1 calls)
     wfcinit:wfcr :      0.00s CPU      0.00s WALL (       1 calls)
     potinit      :      0.05s CPU      0.05s WALL (       1 calls)
     hinit0       :      0.01s CPU      0.01s WALL (       1 calls)

     Called by electrons:
     c_bands      :      3.53s CPU      3.56s WALL (     178 calls)
     sum_band     :      1.40s CPU      1.41s WALL (     178 calls)
     v_of_rho     :      7.03s CPU      7.05s WALL (     181 calls)
     v_h          :      0.35s CPU      0.35s WALL (     181 calls)
     v_xc         :      6.68s CPU      6.70s WALL (     181 calls)
     newd         :      0.44s CPU      0.44s WALL (     181 calls)
     mix_rho      :      1.40s CPU      1.41s WALL (     178 calls)

     Called by c_bands:
     init_us_2    :      0.04s CPU      0.05s WALL (     357 calls)
     init_us_2:cp :      0.04s CPU      0.04s WALL (     357 calls)
     cegterg      :      3.49s CPU      3.53s WALL (     178 calls)

     Called by sum_band:
     sum_band:wei :      0.00s CPU      0.00s WALL (     178 calls)
     sum_band:loo :      0.40s CPU      0.41s WALL (     178 calls)
     sum_band:buf :      0.00s CPU      0.00s WALL (     178 calls)
     sum_band:ini :      0.02s CPU      0.02s WALL (     178 calls)
     sum_band:cal :      0.00s CPU      0.01s WALL (     178 calls)
     sum_band:bec :      0.00s CPU      0.00s WALL (     178 calls)
     addusdens    :      0.12s CPU      0.13s WALL (     178 calls)
     addusd:skk   :      0.04s CPU      0.05s WALL (     178 calls)
     addusd:dgemm :      0.03s CPU      0.03s WALL (     178 calls)
     addusd:qvan2 :      0.03s CPU      0.03s WALL (     178 calls)

     Called by *egterg:
     cdiaghg      :      0.01s CPU      0.01s WALL (     979 calls)
     cegterg:over :      0.05s CPU      0.05s WALL (     803 calls)
     cegterg:upda :      0.04s CPU      0.04s WALL (     803 calls)
     cegterg:last :      0.08s CPU      0.08s WALL (     633 calls)
     h_psi        :      3.22s CPU      3.26s WALL (     982 calls)
     s_psi        :      0.02s CPU      0.02s WALL (     982 calls)
     g_psi        :      0.02s CPU      0.02s WALL (     803 calls)

     Called by h_psi:
     h_psi:calbec :      0.02s CPU      0.02s WALL (     982 calls)
     vloc_psi     :      3.17s CPU      3.20s WALL (     982 calls)
     add_vuspsi   :      0.02s CPU      0.02s WALL (     982 calls)

     General routines
     calbec       :      0.03s CPU      0.03s WALL (    1168 calls)
     fft          :      3.06s CPU      3.06s WALL (    1997 calls)
     ffts         :      0.27s CPU      0.28s WALL (     178 calls)
     fftw         :      3.28s CPU      3.32s WALL (    3408 calls)
     davcio       :      0.00s CPU      0.00s WALL (      19 calls)


     PWSCF        :     14.07s CPU     14.16s WALL


   This run was terminated on:   2:54:20  28Feb2022            

=------------------------------------------------------------------------------=
   JOB DONE.
=------------------------------------------------------------------------------=
