
     Program PWSCF v.7.0 starts on 28Feb2022 at  3:18:36 

     This program is part of the open-source Quantum ESPRESSO suite
     for quantum simulation of materials; please cite
         "P. Giannozzi et al., J. Phys.:Condens. Matter 21 395502 (2009);
         "P. Giannozzi et al., J. Phys.:Condens. Matter 29 465901 (2017);
         "P. Giannozzi et al., J. Chem. Phys. 152 154105 (2020);
          URL http://www.quantum-espresso.org", 
     in publications or presentations arising from this work. More details at
     http://www.quantum-espresso.org/quote

     Serial version
     553 MiB available memory on the printing compute node when the environment starts

     Waiting for input...
     Reading input from standard input

     Current dimensions of program PWSCF are:
     Max number of different atomic species (ntypx) = 10
     Max number of k-points (npk) =  40000
     Max angular momentum in pseudopotentials (lmaxx) =  4

     File ./.update deleted, as requested

     File ./.bfgs deleted, as requested

    ============================================================
    |  pseudopotential report for atomic species:  1           |
    |        pseudo potential version   7   3   2              |
    ------------------------------------------------------------
    |  hydrogen            PBE                  exchange-corr  |
    |  z =   1.    zv( 1) =   1.    exfact =   5.00000         |
    |  ifpcor =  0           atomic energy =  -0.91772 Ry      |
    |  index    orbital      occupation    energy              |
    |    1        100           1.00       -0.48               |
    |  rinner =  0.5000                                        |
    |    new generation scheme:                                |
    |    nbeta =  1     kkbeta =  271     rcloc =    0.6000    |
    |    ibeta    l     epsilon   rcut                         |
    |      1       0      -0.48   0.80                         |
    ============================================================

     IMPORTANT: XC functional enforced from input :
     Exchange-correlation= BLYP
                           (   1   3   1   3   0   0   0)
     Any further DFT definition will be discarded
     Please, verify this is what you really want


     G-vector sticks info
     --------------------
     sticks:   dense  smooth     PW     G-vecs:    dense   smooth      PW
     Sum        5721    5721   1565               326029   326029   45961

     Using Slab Decomposition



     bravais-lattice index     =            1
     lattice parameter (alat)  =      30.0000  a.u.
     unit-cell volume          =   27000.0000 (a.u.)^3
     number of atoms/cell      =            2
     number of atomic types    =            1
     number of electrons       =         2.00
     number of Kohn-Sham states=            2
     kinetic-energy cutoff     =      20.0000  Ry
     charge density cutoff     =      80.0000  Ry
     scf convergence threshold =      1.0E-08
     mixing beta               =       0.7000
     number of iterations used =            8  plain     mixing
     energy convergence thresh.=      1.0E-04
     force convergence thresh. =      1.0E-03
     Exchange-correlation= BLYP
                           (   1   3   1   3   0   0   0)
     nstep                     =           50


     celldm(1)=  30.000000  celldm(2)=   0.000000  celldm(3)=   0.000000
     celldm(4)=   0.000000  celldm(5)=   0.000000  celldm(6)=   0.000000

     crystal axes: (cart. coord. in units of alat)
               a(1) = (   1.000000   0.000000   0.000000 )  
               a(2) = (   0.000000   1.000000   0.000000 )  
               a(3) = (   0.000000   0.000000   1.000000 )  

     reciprocal axes: (cart. coord. in units 2 pi/alat)
               b(1) = (  1.000000  0.000000  0.000000 )  
               b(2) = (  0.000000  1.000000  0.000000 )  
               b(3) = (  0.000000  0.000000  1.000000 )  


     PseudoPot. # 1 for hy read from file:
     /root/q-e/pseudo/H_US.van
     MD5 check sum: a9a9bfe98ff56cf4de197d71fc46bb44
     Pseudo is Ultrasoft, Zval =  1.0
     Generated by Vanderbilt code, v. 7.3.2
     Using radial grid of  399 points,  1 beta functions with: 
                l(1) =   0
     Q(r) pseudized with  8 coefficients,  rinner =    0.500

     atomic species   valence    mass     pseudopotential
        H              1.00     1.00784     hy( 1.00)

      8 Sym. Ops. (no inversion) found


                                    s                        frac. trans.

      isym =  1     identity                                     

 cryst.   s( 1) = (     1          0          0      )
                  (     0          1          0      )
                  (     0          0          1      )

 cart.    s( 1) = (  1.0000000  0.0000000  0.0000000 )
                  (  0.0000000  1.0000000  0.0000000 )
                  (  0.0000000  0.0000000  1.0000000 )


      isym =  2     180 deg rotation - cart. axis [1,0,0]        

 cryst.   s( 2) = (     1          0          0      )
                  (     0         -1          0      )
                  (     0          0         -1      )

 cart.    s( 2) = (  1.0000000  0.0000000  0.0000000 )
                  (  0.0000000 -1.0000000  0.0000000 )
                  (  0.0000000  0.0000000 -1.0000000 )


      isym =  3      90 deg rotation - cart. axis [-1,0,0]       

 cryst.   s( 3) = (     1          0          0      )
                  (     0          0         -1      )
                  (     0          1          0      )

 cart.    s( 3) = (  1.0000000  0.0000000  0.0000000 )
                  (  0.0000000  0.0000000  1.0000000 )
                  (  0.0000000 -1.0000000  0.0000000 )


      isym =  4      90 deg rotation - cart. axis [1,0,0]        

 cryst.   s( 4) = (     1          0          0      )
                  (     0          0          1      )
                  (     0         -1          0      )

 cart.    s( 4) = (  1.0000000  0.0000000  0.0000000 )
                  (  0.0000000  0.0000000 -1.0000000 )
                  (  0.0000000  1.0000000  0.0000000 )


      isym =  5     inv. 180 deg rotation - cart. axis [0,0,1]   

 cryst.   s( 5) = (     1          0          0      )
                  (     0          1          0      )
                  (     0          0         -1      )

 cart.    s( 5) = (  1.0000000  0.0000000  0.0000000 )
                  (  0.0000000  1.0000000  0.0000000 )
                  (  0.0000000  0.0000000 -1.0000000 )


      isym =  6     inv. 180 deg rotation - cart. axis [0,1,0]   

 cryst.   s( 6) = (     1          0          0      )
                  (     0         -1          0      )
                  (     0          0          1      )

 cart.    s( 6) = (  1.0000000  0.0000000  0.0000000 )
                  (  0.0000000 -1.0000000  0.0000000 )
                  (  0.0000000  0.0000000  1.0000000 )


      isym =  7     inv. 180 deg rotation - cart. axis [0,1,1]   

 cryst.   s( 7) = (     1          0          0      )
                  (     0          0         -1      )
                  (     0         -1          0      )

 cart.    s( 7) = (  1.0000000  0.0000000  0.0000000 )
                  (  0.0000000  0.0000000 -1.0000000 )
                  (  0.0000000 -1.0000000  0.0000000 )


      isym =  8     inv. 180 deg rotation - cart. axis [0,1,-1]  

 cryst.   s( 8) = (     1          0          0      )
                  (     0          0          1      )
                  (     0          1          0      )

 cart.    s( 8) = (  1.0000000  0.0000000  0.0000000 )
                  (  0.0000000  0.0000000  1.0000000 )
                  (  0.0000000  1.0000000  0.0000000 )


     point group C_4v (4mm) 
     there are  5 classes
     the character table:

       E     2C4   C2    2s_v  2s_d 
A_1    1.00  1.00  1.00  1.00  1.00
A_2    1.00  1.00  1.00 -1.00 -1.00
B_1    1.00 -1.00  1.00  1.00 -1.00
B_2    1.00 -1.00  1.00 -1.00  1.00
E      2.00  0.00 -2.00  0.00  0.00

     the symmetry operations in each class and the name of the first element:

     E        1
          identity                                               
     2C4      3    4
           90 deg rotation - cart. axis [-1,0,0]                 
     C2       2
          180 deg rotation - cart. axis [1,0,0]                  
     2s_v     5    6
          inv. 180 deg rotation - cart. axis [0,0,1]             
     2s_d     7    8
          inv. 180 deg rotation - cart. axis [0,1,1]             

   Cartesian axes

     site n.     atom                  positions (alat units)
         1           H   tau(   1) = (   0.0000000   0.0000000   0.0000000  )
         2           H   tau(   2) = (   0.0478731   0.0000000   0.0000000  )

   Crystallographic axes

     site n.     atom                  positions (cryst. coord.)
         1           H   tau(   1) = (  0.0000000  0.0000000  0.0000000  )
         2           H   tau(   2) = (  0.0478731  0.0000000  0.0000000  )

     number of k points=     1
                       cart. coord. in units 2pi/alat
        k(    1) = (  -0.5000000  -0.5000000  -0.5000000), wk =   2.0000000

                       cryst. coord.
        k(    1) = (  -0.5000000  -0.5000000  -0.5000000), wk =   2.0000000

     Dense  grid:   326029 G-vectors     FFT dimensions: (  90,  90,  90)

     Dynamical RAM for                 wfc:       1.24 MB

     Dynamical RAM for     wfc (w. buffer):       1.24 MB

     Dynamical RAM for           str. fact:       4.97 MB

     Dynamical RAM for           local pot:       0.00 MB

     Dynamical RAM for          nlocal pot:       1.24 MB

     Dynamical RAM for                qrad:       0.01 MB

     Dynamical RAM for          rho,v,vnew:      31.61 MB

     Dynamical RAM for               rhoin:      10.54 MB

     Dynamical RAM for            rho*nmix:      79.60 MB

     Dynamical RAM for           G-vectors:      21.14 MB

     Dynamical RAM for          h,s,v(r/c):       0.00 MB

     Dynamical RAM for          <psi|beta>:       0.00 MB

     Dynamical RAM for                 psi:       2.49 MB

     Dynamical RAM for                hpsi:       2.49 MB

     Dynamical RAM for                spsi:       2.49 MB

     Dynamical RAM for      wfcinit/wfcrot:       2.49 MB

     Dynamical RAM for           addusdens:      29.85 MB

     Dynamical RAM for          addusforce:      42.29 MB

     Estimated static dynamical RAM per process >     108.52 MB

     Estimated max dynamical RAM per process >     230.40 MB

     Initial potential from superposition of free atoms

     starting charge       2.0000, renormalised to       2.0000

     negative rho (up, down):  5.526E-02 0.000E+00
     Starting wfcs are    2 randomized atomic wfcs

     total cpu time spent up to now is        0.6 secs

     Self-consistent Calculation

     iteration #  1     ecut=    20.00 Ry     beta= 0.70
     Davidson diagonalization with overlap

---- Real-time Memory Report at c_bands before calling an iterative solver
           198 MiB given to the printing process from OS
             0 MiB allocation reported by mallinfo(arena+hblkhd)
           422 MiB available memory on the node where the printing process lives
------------------
     ethr =  1.00E-02,  avg # of iterations =  5.0

     negative rho (up, down):  8.461E-02 0.000E+00

     total cpu time spent up to now is        1.3 secs

     total energy              =      -2.30944087 Ry
     estimated scf accuracy    <       0.11610962 Ry

     iteration #  2     ecut=    20.00 Ry     beta= 0.70
     Davidson diagonalization with overlap

---- Real-time Memory Report at c_bands before calling an iterative solver
           243 MiB given to the printing process from OS
             0 MiB allocation reported by mallinfo(arena+hblkhd)
           321 MiB available memory on the node where the printing process lives
------------------
     ethr =  5.81E-03,  avg # of iterations =  1.0

     negative rho (up, down):  9.110E-02 0.000E+00

     total cpu time spent up to now is        1.9 secs

     total energy              =      -2.31323576 Ry
     estimated scf accuracy    <       0.00133500 Ry

     iteration #  3     ecut=    20.00 Ry     beta= 0.70
     Davidson diagonalization with overlap

---- Real-time Memory Report at c_bands before calling an iterative solver
           254 MiB given to the printing process from OS
             0 MiB allocation reported by mallinfo(arena+hblkhd)
           311 MiB available memory on the node where the printing process lives
------------------
     ethr =  6.67E-05,  avg # of iterations =  9.0

     negative rho (up, down):  9.109E-02 0.000E+00

     total cpu time spent up to now is        2.7 secs

     total energy              =      -2.31358819 Ry
     estimated scf accuracy    <       0.00001347 Ry

     iteration #  4     ecut=    20.00 Ry     beta= 0.70
     Davidson diagonalization with overlap

---- Real-time Memory Report at c_bands before calling an iterative solver
           264 MiB given to the printing process from OS
             0 MiB allocation reported by mallinfo(arena+hblkhd)
           301 MiB available memory on the node where the printing process lives
------------------
     ethr =  6.73E-07,  avg # of iterations =  5.0

     negative rho (up, down):  9.120E-02 0.000E+00

     total cpu time spent up to now is        3.4 secs

     total energy              =      -2.31350549 Ry
     estimated scf accuracy    <       0.00000030 Ry

     iteration #  5     ecut=    20.00 Ry     beta= 0.70
     Davidson diagonalization with overlap

---- Real-time Memory Report at c_bands before calling an iterative solver
           274 MiB given to the printing process from OS
             0 MiB allocation reported by mallinfo(arena+hblkhd)
           291 MiB available memory on the node where the printing process lives
------------------
     ethr =  1.48E-08,  avg # of iterations =  2.0

     negative rho (up, down):  9.121E-02 0.000E+00

     total cpu time spent up to now is        4.1 secs

     total energy              =      -2.31349210 Ry
     estimated scf accuracy    <       0.00000002 Ry

     iteration #  6     ecut=    20.00 Ry     beta= 0.70
     Davidson diagonalization with overlap

---- Real-time Memory Report at c_bands before calling an iterative solver
           283 MiB given to the printing process from OS
             0 MiB allocation reported by mallinfo(arena+hblkhd)
           281 MiB available memory on the node where the printing process lives
------------------
     ethr =  1.12E-09,  avg # of iterations =  3.0

     negative rho (up, down):  9.120E-02 0.000E+00

     total cpu time spent up to now is        4.7 secs

     total energy              =      -2.31350714 Ry
     estimated scf accuracy    <       0.00000001 Ry

     iteration #  7     ecut=    20.00 Ry     beta= 0.70
     Davidson diagonalization with overlap

---- Real-time Memory Report at c_bands before calling an iterative solver
           293 MiB given to the printing process from OS
             0 MiB allocation reported by mallinfo(arena+hblkhd)
           271 MiB available memory on the node where the printing process lives
------------------
     ethr =  5.21E-10,  avg # of iterations =  3.0

     negative rho (up, down):  9.120E-02 0.000E+00

     total cpu time spent up to now is        5.3 secs

     End of self-consistent calculation

          k =-0.5000-0.5000-0.5000 ( 40800 PWs)   bands (ev):

   -10.4560  -1.3877

     occupation numbers 
     1.0000   0.0000

     highest occupied, lowest unoccupied level (ev):   -10.4560   -1.3877

!    total energy              =      -2.31350169 Ry
     estimated scf accuracy    <          9.1E-10 Ry

     The total energy is the sum of the following terms:
     one-electron contribution =      -4.18389275 Ry
     hartree contribution      =       2.23804541 Ry
     xc contribution           =      -1.38224069 Ry
     ewald contribution        =       1.01458635 Ry

     convergence has been achieved in   7 iterations

     Forces acting on atoms (cartesian axes, Ry/au):

     atom    1 type  1   force =     0.01419443    0.00000000    0.00000000
     atom    2 type  1   force =    -0.01419443    0.00000000    0.00000000
     The non-local contrib.  to forces
     atom    1 type  1   force =     0.09402687    0.00000000    0.00000000
     atom    2 type  1   force =    -0.09374933    0.00000000    0.00000000
     The ionic contribution  to forces
     atom    1 type  1   force =    -0.96917919   -0.00000000   -0.00000000
     atom    2 type  1   force =     0.96917919   -0.00000000   -0.00000000
     The local contribution  to forces
     atom    1 type  1   force =     0.88950573    0.00000000    0.00000000
     atom    2 type  1   force =    -0.88945362    0.00000000    0.00000000
     The core correction contribution to forces
     atom    1 type  1   force =     0.00000000    0.00000000    0.00000000
     atom    2 type  1   force =     0.00000000    0.00000000    0.00000000
     The Hubbard contrib.    to forces
     atom    1 type  1   force =     0.00000000    0.00000000    0.00000000
     atom    2 type  1   force =     0.00000000    0.00000000    0.00000000
     The SCF correction term to forces
     atom    1 type  1   force =    -0.00023106    0.00000000    0.00000000
     atom    2 type  1   force =    -0.00024274    0.00000000    0.00000000

     Total force =     0.020074     Total SCF correction =     0.000335

     BFGS Geometry Optimization
     Energy error            =      0.0E+00 Ry
     Gradient error          =      1.4E-02 Ry/Bohr

     number of scf cycles    =   1
     number of bfgs steps    =   0

     energy             new  =      -2.3135016944 Ry

     new trust radius        =       0.0141944338 bohr
     new conv_thr            =       0.0000000100 Ry


ATOMIC_POSITIONS (angstrom)
H             0.0075113709        0.0000000000        0.0000000000
H             0.7524886291        0.0000000000        0.0000000000



     Writing config-only to output data dir ./.save/
     NEW-OLD atomic charge density approx. for the potential

     negative rho (up, down):  9.058E-02 0.000E+00

     total cpu time spent up to now is        5.9 secs

     Self-consistent Calculation

     iteration #  1     ecut=    20.00 Ry     beta= 0.70
     Davidson diagonalization with overlap

---- Real-time Memory Report at c_bands before calling an iterative solver
           299 MiB given to the printing process from OS
             0 MiB allocation reported by mallinfo(arena+hblkhd)
           412 MiB available memory on the node where the printing process lives
------------------
     ethr =  1.00E-06,  avg # of iterations =  3.0

     negative rho (up, down):  9.165E-02 0.000E+00

     total cpu time spent up to now is        6.6 secs

     total energy              =      -2.31330573 Ry
     estimated scf accuracy    <       0.00006116 Ry

     iteration #  2     ecut=    20.00 Ry     beta= 0.70
     Davidson diagonalization with overlap

---- Real-time Memory Report at c_bands before calling an iterative solver
           299 MiB given to the printing process from OS
             0 MiB allocation reported by mallinfo(arena+hblkhd)
           315 MiB available memory on the node where the printing process lives
------------------
     ethr =  3.06E-06,  avg # of iterations =  2.0

     negative rho (up, down):  9.185E-02 0.000E+00

     total cpu time spent up to now is        7.3 secs

     total energy              =      -2.31318499 Ry
     estimated scf accuracy    <       0.00000075 Ry

     iteration #  3     ecut=    20.00 Ry     beta= 0.70
     Davidson diagonalization with overlap

---- Real-time Memory Report at c_bands before calling an iterative solver
           299 MiB given to the printing process from OS
             0 MiB allocation reported by mallinfo(arena+hblkhd)
           305 MiB available memory on the node where the printing process lives
------------------
     ethr =  3.77E-08,  avg # of iterations =  2.0

     negative rho (up, down):  9.189E-02 0.000E+00

     total cpu time spent up to now is        8.0 secs

     total energy              =      -2.31316980 Ry
     estimated scf accuracy    <       0.00000003 Ry

     iteration #  4     ecut=    20.00 Ry     beta= 0.70
     Davidson diagonalization with overlap

---- Real-time Memory Report at c_bands before calling an iterative solver
           299 MiB given to the printing process from OS
             0 MiB allocation reported by mallinfo(arena+hblkhd)
           295 MiB available memory on the node where the printing process lives
------------------
     ethr =  1.59E-09,  avg # of iterations =  3.0

     negative rho (up, down):  9.189E-02 0.000E+00

     total cpu time spent up to now is        8.6 secs

     End of self-consistent calculation

          k =-0.5000-0.5000-0.5000 ( 40800 PWs)   bands (ev):

   -10.5306  -1.3816

     occupation numbers 
     1.0000   0.0000

     highest occupied, lowest unoccupied level (ev):   -10.5306   -1.3816

!    total energy              =      -2.31316550 Ry
     estimated scf accuracy    <          4.8E-09 Ry

     The total energy is the sum of the following terms:
     one-electron contribution =      -4.22221755 Ry
     hartree contribution      =       2.25797249 Ry
     xc contribution           =      -1.39157590 Ry
     ewald contribution        =       1.04265546 Ry

     convergence has been achieved in   4 iterations

     Forces acting on atoms (cartesian axes, Ry/au):

     atom    1 type  1   force =    -0.00895492    0.00000000    0.00000000
     atom    2 type  1   force =     0.00895492    0.00000000    0.00000000
     The non-local contrib.  to forces
     atom    1 type  1   force =     0.09524810    0.00000000    0.00000000
     atom    2 type  1   force =    -0.09434120    0.00000000    0.00000000
     The ionic contribution  to forces
     atom    1 type  1   force =    -1.00868827    0.00000000   -0.00000000
     atom    2 type  1   force =     1.00868827   -0.00000000   -0.00000000
     The local contribution  to forces
     atom    1 type  1   force =     0.90491181    0.00000000    0.00000000
     atom    2 type  1   force =    -0.90502338    0.00000000    0.00000000
     The core correction contribution to forces
     atom    1 type  1   force =     0.00000000    0.00000000    0.00000000
     atom    2 type  1   force =     0.00000000    0.00000000    0.00000000
     The Hubbard contrib.    to forces
     atom    1 type  1   force =     0.00000000    0.00000000    0.00000000
     atom    2 type  1   force =     0.00000000    0.00000000    0.00000000
     The SCF correction term to forces
     atom    1 type  1   force =     0.00009190    0.00000000    0.00000000
     atom    2 type  1   force =     0.00014969    0.00000000    0.00000000

     Total force =     0.012664     Total SCF correction =     0.000176
     Energy error            =      3.4E-04 Ry
     Gradient error          =      9.0E-03 Ry/Bohr

     number of scf cycles    =   2
     number of bfgs steps    =   1

     energy             old  =      -2.3135016944 Ry
     energy             new  =      -2.3131654990 Ry

     CASE: energy            _new > energy            _old

     new trust radius        =       0.0038691557 bohr
     new conv_thr            =       0.0000000100 Ry


ATOMIC_POSITIONS (angstrom)
H             0.0020474690        0.0000000000        0.0000000000
H             0.7579525310        0.0000000000        0.0000000000



     Writing config-only to output data dir ./.save/
     NEW-OLD atomic charge density approx. for the potential

     negative rho (up, down):  9.228E-02 0.000E+00

     total cpu time spent up to now is        9.2 secs

     Self-consistent Calculation

     iteration #  1     ecut=    20.00 Ry     beta= 0.70
     Davidson diagonalization with overlap

---- Real-time Memory Report at c_bands before calling an iterative solver
           299 MiB given to the printing process from OS
             0 MiB allocation reported by mallinfo(arena+hblkhd)
           412 MiB available memory on the node where the printing process lives
------------------
     ethr =  1.00E-06,  avg # of iterations =  3.0

     negative rho (up, down):  9.156E-02 0.000E+00

     total cpu time spent up to now is        9.9 secs

     total energy              =      -2.31333464 Ry
     estimated scf accuracy    <       0.00003155 Ry

     iteration #  2     ecut=    20.00 Ry     beta= 0.70
     Davidson diagonalization with overlap

---- Real-time Memory Report at c_bands before calling an iterative solver
           299 MiB given to the printing process from OS
             0 MiB allocation reported by mallinfo(arena+hblkhd)
           315 MiB available memory on the node where the printing process lives
------------------
     ethr =  1.58E-06,  avg # of iterations =  2.0

     negative rho (up, down):  9.142E-02 0.000E+00

     total cpu time spent up to now is       10.5 secs

     total energy              =      -2.31344758 Ry
     estimated scf accuracy    <       0.00000044 Ry

     iteration #  3     ecut=    20.00 Ry     beta= 0.70
     Davidson diagonalization with overlap

---- Real-time Memory Report at c_bands before calling an iterative solver
           299 MiB given to the printing process from OS
             0 MiB allocation reported by mallinfo(arena+hblkhd)
           305 MiB available memory on the node where the printing process lives
------------------
     ethr =  2.22E-08,  avg # of iterations =  2.0

     negative rho (up, down):  9.140E-02 0.000E+00

     total cpu time spent up to now is       11.1 secs

     total energy              =      -2.31347398 Ry
     estimated scf accuracy    <       0.00000001 Ry

     iteration #  4     ecut=    20.00 Ry     beta= 0.70
     Davidson diagonalization with overlap

---- Real-time Memory Report at c_bands before calling an iterative solver
           299 MiB given to the printing process from OS
             0 MiB allocation reported by mallinfo(arena+hblkhd)
           295 MiB available memory on the node where the printing process lives
------------------
     ethr =  7.46E-10,  avg # of iterations =  3.0

     negative rho (up, down):  9.141E-02 0.000E+00

     total cpu time spent up to now is       11.7 secs

     End of self-consistent calculation

          k =-0.5000-0.5000-0.5000 ( 40800 PWs)   bands (ev):

   -10.4756  -1.3885

     occupation numbers 
     1.0000   0.0000

     highest occupied, lowest unoccupied level (ev):   -10.4756   -1.3885

!    total energy              =      -2.31345581 Ry
     estimated scf accuracy    <          4.4E-09 Ry

     The total energy is the sum of the following terms:
     one-electron contribution =      -4.19438714 Ry
     hartree contribution      =       2.24366281 Ry
     xc contribution           =      -1.38485829 Ry
     ewald contribution        =       1.02212681 Ry

     convergence has been achieved in   4 iterations

     Forces acting on atoms (cartesian axes, Ry/au):

     atom    1 type  1   force =     0.00803575    0.00000000    0.00000000
     atom    2 type  1   force =    -0.00803575    0.00000000    0.00000000
     The non-local contrib.  to forces
     atom    1 type  1   force =     0.09401638    0.00000000    0.00000000
     atom    2 type  1   force =    -0.09393535    0.00000000    0.00000000
     The ionic contribution  to forces
     atom    1 type  1   force =    -0.97971555   -0.00000000   -0.00000000
     atom    2 type  1   force =     0.97971555   -0.00000000   -0.00000000
     The local contribution  to forces
     atom    1 type  1   force =     0.89376008    0.00000000    0.00000000
     atom    2 type  1   force =    -0.89375695    0.00000000    0.00000000
     The core correction contribution to forces
     atom    1 type  1   force =     0.00000000    0.00000000    0.00000000
     atom    2 type  1   force =     0.00000000    0.00000000    0.00000000
     The Hubbard contrib.    to forces
     atom    1 type  1   force =     0.00000000    0.00000000    0.00000000
     atom    2 type  1   force =     0.00000000    0.00000000    0.00000000
     The SCF correction term to forces
     atom    1 type  1   force =    -0.00008657   -0.00000000   -0.00000000
     atom    2 type  1   force =    -0.00012042   -0.00000000   -0.00000000

     Total force =     0.011364     Total SCF correction =     0.000148
     Energy error            =      4.6E-05 Ry
     Gradient error          =      8.0E-03 Ry/Bohr

     number of scf cycles    =   3
     number of bfgs steps    =   1

     energy             old  =      -2.3135016944 Ry
     energy             new  =      -2.3134558068 Ry

     CASE: energy            _new > energy            _old

     new trust radius        =       0.0013645278 bohr
     new conv_thr            =       0.0000000100 Ry


ATOMIC_POSITIONS (angstrom)
H             0.0007220770        0.0000000000        0.0000000000
H             0.7592779230        0.0000000000        0.0000000000



     Writing config-only to output data dir ./.save/
     NEW-OLD atomic charge density approx. for the potential

     negative rho (up, down):  9.151E-02 0.000E+00

     total cpu time spent up to now is       12.4 secs

     Self-consistent Calculation

     iteration #  1     ecut=    20.00 Ry     beta= 0.70
     Davidson diagonalization with overlap

---- Real-time Memory Report at c_bands before calling an iterative solver
           299 MiB given to the printing process from OS
             0 MiB allocation reported by mallinfo(arena+hblkhd)
           412 MiB available memory on the node where the printing process lives
------------------
     ethr =  1.00E-06,  avg # of iterations =  2.0

     Threshold (ethr) on eigenvalues was too large:
     Diagonalizing with lowered threshold

     Davidson diagonalization with overlap

---- Real-time Memory Report at c_bands before calling an iterative solver
           299 MiB given to the printing process from OS
             0 MiB allocation reported by mallinfo(arena+hblkhd)
           396 MiB available memory on the node where the printing process lives
------------------
     ethr =  8.84E-08,  avg # of iterations =  1.0

     negative rho (up, down):  9.132E-02 0.000E+00

     total cpu time spent up to now is       13.2 secs

     total energy              =      -2.31345462 Ry
     estimated scf accuracy    <       0.00000193 Ry

     iteration #  2     ecut=    20.00 Ry     beta= 0.70
     Davidson diagonalization with overlap

---- Real-time Memory Report at c_bands before calling an iterative solver
           299 MiB given to the printing process from OS
             0 MiB allocation reported by mallinfo(arena+hblkhd)
           315 MiB available memory on the node where the printing process lives
------------------
     ethr =  9.65E-08,  avg # of iterations =  2.0

     negative rho (up, down):  9.126E-02 0.000E+00

     total cpu time spent up to now is       13.8 secs

     total energy              =      -2.31350600 Ry
     estimated scf accuracy    <       0.00000006 Ry

     iteration #  3     ecut=    20.00 Ry     beta= 0.70
     Davidson diagonalization with overlap

---- Real-time Memory Report at c_bands before calling an iterative solver
           299 MiB given to the printing process from OS
             0 MiB allocation reported by mallinfo(arena+hblkhd)
           305 MiB available memory on the node where the printing process lives
------------------
     ethr =  2.91E-09,  avg # of iterations =  3.0

     negative rho (up, down):  9.127E-02 0.000E+00

     total cpu time spent up to now is       14.4 secs

     total energy              =      -2.31349414 Ry
     estimated scf accuracy    <       0.00000003 Ry

     iteration #  4     ecut=    20.00 Ry     beta= 0.70
     Davidson diagonalization with overlap

---- Real-time Memory Report at c_bands before calling an iterative solver
           299 MiB given to the printing process from OS
             0 MiB allocation reported by mallinfo(arena+hblkhd)
           295 MiB available memory on the node where the printing process lives
------------------
     ethr =  1.73E-09,  avg # of iterations =  3.0

     negative rho (up, down):  9.127E-02 0.000E+00

     total cpu time spent up to now is       15.0 secs

     End of self-consistent calculation

          k =-0.5000-0.5000-0.5000 ( 40800 PWs)   bands (ev):

   -10.4634  -1.3863

     occupation numbers 
     1.0000   0.0000

     highest occupied, lowest unoccupied level (ev):   -10.4634   -1.3863

!    total energy              =      -2.31349832 Ry
     estimated scf accuracy    <          2.9E-09 Ry

     The total energy is the sum of the following terms:
     one-electron contribution =      -4.18756987 Ry
     hartree contribution      =       2.23999014 Ry
     xc contribution           =      -1.38315492 Ry
     ewald contribution        =       1.01723633 Ry

     convergence has been achieved in   4 iterations

     Forces acting on atoms (cartesian axes, Ry/au):

     atom    1 type  1   force =     0.01186674    0.00000000    0.00000000
     atom    2 type  1   force =    -0.01186674    0.00000000    0.00000000
     The non-local contrib.  to forces
     atom    1 type  1   force =     0.09399926    0.00000000    0.00000000
     atom    2 type  1   force =    -0.09370855    0.00000000    0.00000000
     The ionic contribution  to forces
     atom    1 type  1   force =    -0.97287556    0.00000000   -0.00000000
     atom    2 type  1   force =     0.97287556    0.00000000   -0.00000000
     The local contribution  to forces
     atom    1 type  1   force =     0.89101039    0.00000000    0.00000000
     atom    2 type  1   force =    -0.89096604    0.00000000    0.00000000
     The core correction contribution to forces
     atom    1 type  1   force =     0.00000000    0.00000000    0.00000000
     atom    2 type  1   force =     0.00000000    0.00000000    0.00000000
     The Hubbard contrib.    to forces
     atom    1 type  1   force =     0.00000000    0.00000000    0.00000000
     atom    2 type  1   force =     0.00000000    0.00000000    0.00000000
     The SCF correction term to forces
     atom    1 type  1   force =    -0.00029723    0.00000000    0.00000000
     atom    2 type  1   force =    -0.00009758    0.00000000    0.00000000

     Total force =     0.016782     Total SCF correction =     0.000313
     Energy error            =      3.4E-06 Ry
     Gradient error          =      1.2E-02 Ry/Bohr

     number of scf cycles    =   4
     number of bfgs steps    =   1

     energy             old  =      -2.3135016944 Ry
     energy             new  =      -2.3134983217 Ry

     CASE: energy            _new > energy            _old

     new trust radius        =       0.0006276204 bohr
     new conv_thr            =       0.0000000100 Ry


ATOMIC_POSITIONS (angstrom)
H             0.0003321224        0.0000000000        0.0000000000
H             0.7596678776        0.0000000000        0.0000000000



     Writing config-only to output data dir ./.save/
     NEW-OLD atomic charge density approx. for the potential

     negative rho (up, down):  9.130E-02 0.000E+00

     total cpu time spent up to now is       15.6 secs

     Self-consistent Calculation

     iteration #  1     ecut=    20.00 Ry     beta= 0.70
     Davidson diagonalization with overlap

---- Real-time Memory Report at c_bands before calling an iterative solver
           299 MiB given to the printing process from OS
             0 MiB allocation reported by mallinfo(arena+hblkhd)
           412 MiB available memory on the node where the printing process lives
------------------
     ethr =  1.00E-06,  avg # of iterations =  2.0

     Threshold (ethr) on eigenvalues was too large:
     Diagonalizing with lowered threshold

     Davidson diagonalization with overlap

---- Real-time Memory Report at c_bands before calling an iterative solver
           299 MiB given to the printing process from OS
             0 MiB allocation reported by mallinfo(arena+hblkhd)
           396 MiB available memory on the node where the printing process lives
------------------
     ethr =  6.31E-09,  avg # of iterations =  1.0

     negative rho (up, down):  9.125E-02 0.000E+00

     total cpu time spent up to now is       16.4 secs

     total energy              =      -2.31349066 Ry
     estimated scf accuracy    <       0.00000015 Ry

     iteration #  2     ecut=    20.00 Ry     beta= 0.70
     Davidson diagonalization with overlap

---- Real-time Memory Report at c_bands before calling an iterative solver
           299 MiB given to the printing process from OS
             0 MiB allocation reported by mallinfo(arena+hblkhd)
           315 MiB available memory on the node where the printing process lives
------------------
     ethr =  7.39E-09,  avg # of iterations =  2.0

     negative rho (up, down):  9.122E-02 0.000E+00

     total cpu time spent up to now is       17.1 secs

     total energy              =      -2.31351232 Ry
     estimated scf accuracy    <       0.00000001 Ry

     iteration #  3     ecut=    20.00 Ry     beta= 0.70
     Davidson diagonalization with overlap

---- Real-time Memory Report at c_bands before calling an iterative solver
           299 MiB given to the printing process from OS
             0 MiB allocation reported by mallinfo(arena+hblkhd)
           305 MiB available memory on the node where the printing process lives
------------------
     ethr =  5.82E-10,  avg # of iterations =  4.0

     negative rho (up, down):  9.123E-02 0.000E+00

     total cpu time spent up to now is       17.7 secs

     total energy              =      -2.31351477 Ry
     estimated scf accuracy    <       0.00000002 Ry

     iteration #  4     ecut=    20.00 Ry     beta= 0.70
     Davidson diagonalization with overlap

---- Real-time Memory Report at c_bands before calling an iterative solver
           299 MiB given to the printing process from OS
             0 MiB allocation reported by mallinfo(arena+hblkhd)
           295 MiB available memory on the node where the printing process lives
------------------
     ethr =  5.82E-10,  avg # of iterations =  3.0

     negative rho (up, down):  9.125E-02 0.000E+00

     total cpu time spent up to now is       18.3 secs

     End of self-consistent calculation

          k =-0.5000-0.5000-0.5000 ( 40800 PWs)   bands (ev):

   -10.4593  -1.3860

     occupation numbers 
     1.0000   0.0000

     highest occupied, lowest unoccupied level (ev):   -10.4593   -1.3860

!    total energy              =      -2.31348841 Ry
     estimated scf accuracy    <          7.6E-09 Ry

     The total energy is the sum of the following terms:
     one-electron contribution =      -4.18568276 Ry
     hartree contribution      =       2.23913068 Ry
     xc contribution           =      -1.38274030 Ry
     ewald contribution        =       1.01580396 Ry

     convergence has been achieved in   4 iterations

     Forces acting on atoms (cartesian axes, Ry/au):

     atom    1 type  1   force =     0.01312465    0.00000000    0.00000000
     atom    2 type  1   force =    -0.01312465    0.00000000    0.00000000
     The non-local contrib.  to forces
     atom    1 type  1   force =     0.09400384    0.00000000    0.00000000
     atom    2 type  1   force =    -0.09365658    0.00000000    0.00000000
     The ionic contribution  to forces
     atom    1 type  1   force =    -0.97087673    0.00000000   -0.00000000
     atom    2 type  1   force =     0.97087673    0.00000000   -0.00000000
     The local contribution  to forces
     atom    1 type  1   force =     0.89023236    0.00000000    0.00000000
     atom    2 type  1   force =    -0.89025328    0.00000000    0.00000000
     The core correction contribution to forces
     atom    1 type  1   force =     0.00000000    0.00000000    0.00000000
     atom    2 type  1   force =     0.00000000    0.00000000    0.00000000
     The Hubbard contrib.    to forces
     atom    1 type  1   force =     0.00000000    0.00000000    0.00000000
     atom    2 type  1   force =     0.00000000    0.00000000    0.00000000
     The SCF correction term to forces
     atom    1 type  1   force =    -0.00009260    0.00000000   -0.00000000
     atom    2 type  1   force =     0.00005071    0.00000000   -0.00000000

     Total force =     0.018561     Total SCF correction =     0.000106
     Energy error            =      1.3E-05 Ry
     Gradient error          =      1.3E-02 Ry/Bohr

     number of scf cycles    =   5
     number of bfgs steps    =   1

     energy             old  =      -2.3135016944 Ry
     energy             new  =      -2.3134884075 Ry

     CASE: energy            _new > energy            _old

     new trust radius        =       0.0001797593 bohr
     new conv_thr            =       0.0000000100 Ry


ATOMIC_POSITIONS (angstrom)
H             0.0000951245        0.0000000000        0.0000000000
H             0.7599048755        0.0000000000        0.0000000000



     Writing config-only to output data dir ./.save/
     NEW-OLD atomic charge density approx. for the potential

     negative rho (up, down):  9.127E-02 0.000E+00

     total cpu time spent up to now is       18.9 secs

     Self-consistent Calculation

     iteration #  1     ecut=    20.00 Ry     beta= 0.70
     Davidson diagonalization with overlap

---- Real-time Memory Report at c_bands before calling an iterative solver
           299 MiB given to the printing process from OS
             0 MiB allocation reported by mallinfo(arena+hblkhd)
           412 MiB available memory on the node where the printing process lives
------------------
     ethr =  1.00E-06,  avg # of iterations =  2.0

     Threshold (ethr) on eigenvalues was too large:
     Diagonalizing with lowered threshold

     Davidson diagonalization with overlap

---- Real-time Memory Report at c_bands before calling an iterative solver
           299 MiB given to the printing process from OS
             0 MiB allocation reported by mallinfo(arena+hblkhd)
           396 MiB available memory on the node where the printing process lives
------------------
     ethr =  5.30E-09,  avg # of iterations =  1.0

     negative rho (up, down):  9.122E-02 0.000E+00

     total cpu time spent up to now is       19.7 secs

     total energy              =      -2.31349485 Ry
     estimated scf accuracy    <       0.00000012 Ry

     iteration #  2     ecut=    20.00 Ry     beta= 0.70
     Davidson diagonalization with overlap

---- Real-time Memory Report at c_bands before calling an iterative solver
           299 MiB given to the printing process from OS
             0 MiB allocation reported by mallinfo(arena+hblkhd)
           315 MiB available memory on the node where the printing process lives
------------------
     ethr =  6.13E-09,  avg # of iterations =  2.0

     negative rho (up, down):  9.119E-02 0.000E+00

     total cpu time spent up to now is       20.3 secs

     End of self-consistent calculation

          k =-0.5000-0.5000-0.5000 ( 40800 PWs)   bands (ev):

   -10.4569  -1.3876

     occupation numbers 
     1.0000   0.0000

     highest occupied, lowest unoccupied level (ev):   -10.4569   -1.3876

!    total energy              =      -2.31351772 Ry
     estimated scf accuracy    <          6.2E-09 Ry

     The total energy is the sum of the following terms:
     one-electron contribution =      -4.18429303 Ry
     hartree contribution      =       2.23814190 Ry
     xc contribution           =      -1.38230146 Ry
     ewald contribution        =       1.01493487 Ry

     convergence has been achieved in   2 iterations

     Forces acting on atoms (cartesian axes, Ry/au):

     atom    1 type  1   force =     0.01392965    0.00000000    0.00000000
     atom    2 type  1   force =    -0.01392965    0.00000000    0.00000000
     The non-local contrib.  to forces
     atom    1 type  1   force =     0.09427546    0.00000000    0.00000000
     atom    2 type  1   force =    -0.09359630    0.00000000    0.00000000
     The ionic contribution  to forces
     atom    1 type  1   force =    -0.96966493    0.00000000   -0.00000000
     atom    2 type  1   force =     0.96966493    0.00000000   -0.00000000
     The local contribution  to forces
     atom    1 type  1   force =     0.88963031    0.00000000    0.00000000
     atom    2 type  1   force =    -0.88961458    0.00000000    0.00000000
     The core correction contribution to forces
     atom    1 type  1   force =     0.00000000    0.00000000    0.00000000
     atom    2 type  1   force =     0.00000000    0.00000000    0.00000000
     The Hubbard contrib.    to forces
     atom    1 type  1   force =     0.00000000    0.00000000    0.00000000
     atom    2 type  1   force =     0.00000000    0.00000000    0.00000000
     The SCF correction term to forces
     atom    1 type  1   force =    -0.00006172    0.00000000    0.00000000
     atom    2 type  1   force =    -0.00013424    0.00000000   -0.00000000

     Total force =     0.019700     Total SCF correction =     0.000148
     Energy error            =      1.6E-05 Ry
     Gradient error          =      1.4E-02 Ry/Bohr

     number of scf cycles    =   6
     number of bfgs steps    =   1

     energy             old  =      -2.3135016944 Ry
     energy             new  =      -2.3135177214 Ry

     CASE: energy            _new < energy            _old

     new trust radius        =       0.0002696389 bohr
     new conv_thr            =            1.0E-10 Ry


ATOMIC_POSITIONS (angstrom)
H             0.0002378113        0.0000000000        0.0000000000
H             0.7597621887        0.0000000000        0.0000000000



     Writing config-only to output data dir ./.save/
     NEW-OLD atomic charge density approx. for the potential

     negative rho (up, down):  9.118E-02 0.000E+00

     total cpu time spent up to now is       20.9 secs

     Self-consistent Calculation

     iteration #  1     ecut=    20.00 Ry     beta= 0.70
     Davidson diagonalization with overlap

---- Real-time Memory Report at c_bands before calling an iterative solver
           299 MiB given to the printing process from OS
             0 MiB allocation reported by mallinfo(arena+hblkhd)
           412 MiB available memory on the node where the printing process lives
------------------
     ethr =  1.00E-06,  avg # of iterations =  2.0

     Threshold (ethr) on eigenvalues was too large:
     Diagonalizing with lowered threshold

     Davidson diagonalization with overlap

---- Real-time Memory Report at c_bands before calling an iterative solver
           299 MiB given to the printing process from OS
             0 MiB allocation reported by mallinfo(arena+hblkhd)
           396 MiB available memory on the node where the printing process lives
------------------
     ethr =  3.57E-09,  avg # of iterations =  1.0

     negative rho (up, down):  9.122E-02 0.000E+00

     total cpu time spent up to now is       21.7 secs

     total energy              =      -2.31350264 Ry
     estimated scf accuracy    <       0.00000008 Ry

     iteration #  2     ecut=    20.00 Ry     beta= 0.70
     Davidson diagonalization with overlap

---- Real-time Memory Report at c_bands before calling an iterative solver
           299 MiB given to the printing process from OS
             0 MiB allocation reported by mallinfo(arena+hblkhd)
           315 MiB available memory on the node where the printing process lives
------------------
     ethr =  4.03E-09,  avg # of iterations =  3.0

     negative rho (up, down):  9.122E-02 0.000E+00

     total cpu time spent up to now is       22.3 secs

     total energy              =      -2.31352144 Ry
     estimated scf accuracy    <          8.9E-09 Ry

     iteration #  3     ecut=    20.00 Ry     beta= 0.70
     Davidson diagonalization with overlap

---- Real-time Memory Report at c_bands before calling an iterative solver
           299 MiB given to the printing process from OS
             0 MiB allocation reported by mallinfo(arena+hblkhd)
           305 MiB available memory on the node where the printing process lives
------------------
     ethr =  4.44E-10,  avg # of iterations =  4.0

     negative rho (up, down):  9.122E-02 0.000E+00

     total cpu time spent up to now is       23.0 secs

     total energy              =      -2.31350551 Ry
     estimated scf accuracy    <       0.00000001 Ry

     iteration #  4     ecut=    20.00 Ry     beta= 0.70
     Davidson diagonalization with overlap

---- Real-time Memory Report at c_bands before calling an iterative solver
           299 MiB given to the printing process from OS
             0 MiB allocation reported by mallinfo(arena+hblkhd)
           295 MiB available memory on the node where the printing process lives
------------------
     ethr =  4.44E-10,  avg # of iterations =  4.0

     negative rho (up, down):  9.122E-02 0.000E+00

     total cpu time spent up to now is       23.7 secs

     total energy              =      -2.31351276 Ry
     estimated scf accuracy    <          5.7E-09 Ry

     iteration #  5     ecut=    20.00 Ry     beta= 0.70
     Davidson diagonalization with overlap

---- Real-time Memory Report at c_bands before calling an iterative solver
           299 MiB given to the printing process from OS
             0 MiB allocation reported by mallinfo(arena+hblkhd)
           285 MiB available memory on the node where the printing process lives
------------------
     ethr =  2.85E-10,  avg # of iterations =  4.0

     negative rho (up, down):  9.122E-02 0.000E+00

     total cpu time spent up to now is       24.3 secs

     total energy              =      -2.31351220 Ry
     estimated scf accuracy    <          5.2E-09 Ry

     iteration #  6     ecut=    20.00 Ry     beta= 0.70
     Davidson diagonalization with overlap

---- Real-time Memory Report at c_bands before calling an iterative solver
           299 MiB given to the printing process from OS
             0 MiB allocation reported by mallinfo(arena+hblkhd)
           275 MiB available memory on the node where the printing process lives
------------------
     ethr =  2.59E-10,  avg # of iterations =  3.0

     negative rho (up, down):  9.122E-02 0.000E+00

     total cpu time spent up to now is       25.0 secs

     total energy              =      -2.31351261 Ry
     estimated scf accuracy    <          1.7E-09 Ry

     iteration #  7     ecut=    20.00 Ry     beta= 0.70
     Davidson diagonalization with overlap

---- Real-time Memory Report at c_bands before calling an iterative solver
           300 MiB given to the printing process from OS
             0 MiB allocation reported by mallinfo(arena+hblkhd)
           265 MiB available memory on the node where the printing process lives
------------------
     ethr =  8.55E-11,  avg # of iterations =  1.0

     negative rho (up, down):  9.122E-02 0.000E+00

     total cpu time spent up to now is       25.6 secs

     total energy              =      -2.31351225 Ry
     estimated scf accuracy    <          1.6E-09 Ry

     iteration #  8     ecut=    20.00 Ry     beta= 0.70
     Davidson diagonalization with overlap

---- Real-time Memory Report at c_bands before calling an iterative solver
           310 MiB given to the printing process from OS
             0 MiB allocation reported by mallinfo(arena+hblkhd)
           255 MiB available memory on the node where the printing process lives
------------------
     ethr =  8.24E-11,  avg # of iterations =  2.0

     negative rho (up, down):  9.123E-02 0.000E+00

     total cpu time spent up to now is       26.2 secs

     total energy              =      -2.31350809 Ry
     estimated scf accuracy    <          1.4E-09 Ry

     iteration #  9     ecut=    20.00 Ry     beta= 0.70
     Davidson diagonalization with overlap

---- Real-time Memory Report at c_bands before calling an iterative solver
           320 MiB given to the printing process from OS
             0 MiB allocation reported by mallinfo(arena+hblkhd)
           245 MiB available memory on the node where the printing process lives
------------------
     ethr =  6.83E-11,  avg # of iterations =  3.0

     negative rho (up, down):  9.123E-02 0.000E+00

     total cpu time spent up to now is       26.9 secs

     total energy              =      -2.31350846 Ry
     estimated scf accuracy    <          6.7E-10 Ry

     iteration # 10     ecut=    20.00 Ry     beta= 0.70
     Davidson diagonalization with overlap

---- Real-time Memory Report at c_bands before calling an iterative solver
           330 MiB given to the printing process from OS
             0 MiB allocation reported by mallinfo(arena+hblkhd)
           235 MiB available memory on the node where the printing process lives
------------------
     ethr =  3.34E-11,  avg # of iterations =  2.0

     negative rho (up, down):  9.122E-02 0.000E+00

     total cpu time spent up to now is       27.6 secs

     total energy              =      -2.31350961 Ry
     estimated scf accuracy    <          5.8E-10 Ry

     iteration # 11     ecut=    20.00 Ry     beta= 0.70
     Davidson diagonalization with overlap

---- Real-time Memory Report at c_bands before calling an iterative solver
           330 MiB given to the printing process from OS
             0 MiB allocation reported by mallinfo(arena+hblkhd)
           235 MiB available memory on the node where the printing process lives
------------------
     ethr =  2.90E-11,  avg # of iterations =  4.0

     negative rho (up, down):  9.121E-02 0.000E+00

     total cpu time spent up to now is       28.2 secs

     total energy              =      -2.31351691 Ry
     estimated scf accuracy    <          1.8E-09 Ry

     iteration # 12     ecut=    20.00 Ry     beta= 0.70
     Davidson diagonalization with overlap

---- Real-time Memory Report at c_bands before calling an iterative solver
           330 MiB given to the printing process from OS
             0 MiB allocation reported by mallinfo(arena+hblkhd)
           235 MiB available memory on the node where the printing process lives
------------------
     ethr =  2.90E-11,  avg # of iterations =  4.0

     negative rho (up, down):  9.121E-02 0.000E+00

     total cpu time spent up to now is       28.9 secs

     total energy              =      -2.31351713 Ry
     estimated scf accuracy    <          1.7E-09 Ry

     iteration # 13     ecut=    20.00 Ry     beta= 0.70
     Davidson diagonalization with overlap

---- Real-time Memory Report at c_bands before calling an iterative solver
           330 MiB given to the printing process from OS
             0 MiB allocation reported by mallinfo(arena+hblkhd)
           235 MiB available memory on the node where the printing process lives
------------------
     ethr =  2.90E-11,  avg # of iterations =  2.0

     negative rho (up, down):  9.122E-02 0.000E+00

     total cpu time spent up to now is       29.6 secs

     total energy              =      -2.31351302 Ry
     estimated scf accuracy    <          1.9E-09 Ry

     iteration # 14     ecut=    20.00 Ry     beta= 0.70
     Davidson diagonalization with overlap

---- Real-time Memory Report at c_bands before calling an iterative solver
           330 MiB given to the printing process from OS
             0 MiB allocation reported by mallinfo(arena+hblkhd)
           235 MiB available memory on the node where the printing process lives
------------------
     ethr =  2.90E-11,  avg # of iterations =  4.0

     negative rho (up, down):  9.122E-02 0.000E+00

     total cpu time spent up to now is       30.3 secs

     total energy              =      -2.31351114 Ry
     estimated scf accuracy    <          1.4E-09 Ry

     iteration # 15     ecut=    20.00 Ry     beta= 0.70
     Davidson diagonalization with overlap

---- Real-time Memory Report at c_bands before calling an iterative solver
           330 MiB given to the printing process from OS
             0 MiB allocation reported by mallinfo(arena+hblkhd)
           235 MiB available memory on the node where the printing process lives
------------------
     ethr =  2.90E-11,  avg # of iterations =  3.0

     negative rho (up, down):  9.122E-02 0.000E+00

     total cpu time spent up to now is       30.9 secs

     total energy              =      -2.31351237 Ry
     estimated scf accuracy    <          1.5E-09 Ry

     iteration # 16     ecut=    20.00 Ry     beta= 0.70
     Davidson diagonalization with overlap

---- Real-time Memory Report at c_bands before calling an iterative solver
           330 MiB given to the printing process from OS
             0 MiB allocation reported by mallinfo(arena+hblkhd)
           235 MiB available memory on the node where the printing process lives
------------------
     ethr =  2.90E-11,  avg # of iterations =  2.0

     negative rho (up, down):  9.122E-02 0.000E+00

     total cpu time spent up to now is       31.6 secs

     total energy              =      -2.31351235 Ry
     estimated scf accuracy    <          1.6E-09 Ry

     iteration # 17     ecut=    20.00 Ry     beta= 0.70
     Davidson diagonalization with overlap

---- Real-time Memory Report at c_bands before calling an iterative solver
           330 MiB given to the printing process from OS
             0 MiB allocation reported by mallinfo(arena+hblkhd)
           235 MiB available memory on the node where the printing process lives
------------------
     ethr =  2.90E-11,  avg # of iterations =  1.0

     negative rho (up, down):  9.122E-02 0.000E+00

     total cpu time spent up to now is       32.3 secs

     total energy              =      -2.31351459 Ry
     estimated scf accuracy    <          1.5E-09 Ry

     iteration # 18     ecut=    20.00 Ry     beta= 0.70
     Davidson diagonalization with overlap

---- Real-time Memory Report at c_bands before calling an iterative solver
           330 MiB given to the printing process from OS
             0 MiB allocation reported by mallinfo(arena+hblkhd)
           235 MiB available memory on the node where the printing process lives
------------------
     ethr =  2.90E-11,  avg # of iterations =  2.0

     negative rho (up, down):  9.122E-02 0.000E+00

     total cpu time spent up to now is       32.9 secs

     total energy              =      -2.31351279 Ry
     estimated scf accuracy    <          1.5E-09 Ry

     iteration # 19     ecut=    20.00 Ry     beta= 0.70
     Davidson diagonalization with overlap

---- Real-time Memory Report at c_bands before calling an iterative solver
           330 MiB given to the printing process from OS
             0 MiB allocation reported by mallinfo(arena+hblkhd)
           235 MiB available memory on the node where the printing process lives
------------------
     ethr =  2.90E-11,  avg # of iterations =  4.0

     negative rho (up, down):  9.122E-02 0.000E+00

     total cpu time spent up to now is       33.6 secs

     total energy              =      -2.31351352 Ry
     estimated scf accuracy    <          9.2E-10 Ry

     iteration # 20     ecut=    20.00 Ry     beta= 0.70
     Davidson diagonalization with overlap

---- Real-time Memory Report at c_bands before calling an iterative solver
           330 MiB given to the printing process from OS
             0 MiB allocation reported by mallinfo(arena+hblkhd)
           235 MiB available memory on the node where the printing process lives
------------------
     ethr =  2.90E-11,  avg # of iterations =  4.0

     negative rho (up, down):  9.122E-02 0.000E+00

     total cpu time spent up to now is       34.4 secs

     total energy              =      -2.31350951 Ry
     estimated scf accuracy    <          1.4E-09 Ry

     iteration # 21     ecut=    20.00 Ry     beta= 0.70
     Davidson diagonalization with overlap

---- Real-time Memory Report at c_bands before calling an iterative solver
           330 MiB given to the printing process from OS
             0 MiB allocation reported by mallinfo(arena+hblkhd)
           235 MiB available memory on the node where the printing process lives
------------------
     ethr =  2.90E-11,  avg # of iterations =  4.0

     negative rho (up, down):  9.122E-02 0.000E+00

     total cpu time spent up to now is       35.0 secs

     total energy              =      -2.31351432 Ry
     estimated scf accuracy    <          9.9E-10 Ry

     iteration # 22     ecut=    20.00 Ry     beta= 0.70
     Davidson diagonalization with overlap

---- Real-time Memory Report at c_bands before calling an iterative solver
           330 MiB given to the printing process from OS
             0 MiB allocation reported by mallinfo(arena+hblkhd)
           235 MiB available memory on the node where the printing process lives
------------------
     ethr =  2.90E-11,  avg # of iterations =  4.0

     negative rho (up, down):  9.122E-02 0.000E+00

     total cpu time spent up to now is       35.7 secs

     total energy              =      -2.31350974 Ry
     estimated scf accuracy    <          1.0E-09 Ry

     iteration # 23     ecut=    20.00 Ry     beta= 0.70
     Davidson diagonalization with overlap

---- Real-time Memory Report at c_bands before calling an iterative solver
           330 MiB given to the printing process from OS
             0 MiB allocation reported by mallinfo(arena+hblkhd)
           235 MiB available memory on the node where the printing process lives
------------------
     ethr =  2.90E-11,  avg # of iterations =  4.0

     negative rho (up, down):  9.122E-02 0.000E+00

     total cpu time spent up to now is       36.5 secs

     total energy              =      -2.31351454 Ry
     estimated scf accuracy    <          1.0E-09 Ry

     iteration # 24     ecut=    20.00 Ry     beta= 0.70
     Davidson diagonalization with overlap

---- Real-time Memory Report at c_bands before calling an iterative solver
           330 MiB given to the printing process from OS
             0 MiB allocation reported by mallinfo(arena+hblkhd)
           235 MiB available memory on the node where the printing process lives
------------------
     ethr =  2.90E-11,  avg # of iterations =  4.0

     negative rho (up, down):  9.122E-02 0.000E+00

     total cpu time spent up to now is       37.1 secs

     total energy              =      -2.31350776 Ry
     estimated scf accuracy    <          1.5E-09 Ry

     iteration # 25     ecut=    20.00 Ry     beta= 0.70
     Davidson diagonalization with overlap

---- Real-time Memory Report at c_bands before calling an iterative solver
           330 MiB given to the printing process from OS
             0 MiB allocation reported by mallinfo(arena+hblkhd)
           235 MiB available memory on the node where the printing process lives
------------------
     ethr =  2.90E-11,  avg # of iterations =  4.0

     negative rho (up, down):  9.122E-02 0.000E+00

     total cpu time spent up to now is       37.8 secs

     total energy              =      -2.31351299 Ry
     estimated scf accuracy    <          4.3E-09 Ry

     iteration # 26     ecut=    20.00 Ry     beta= 0.70
     Davidson diagonalization with overlap

---- Real-time Memory Report at c_bands before calling an iterative solver
           330 MiB given to the printing process from OS
             0 MiB allocation reported by mallinfo(arena+hblkhd)
           235 MiB available memory on the node where the printing process lives
------------------
     ethr =  2.90E-11,  avg # of iterations =  4.0

     negative rho (up, down):  9.122E-02 0.000E+00

     total cpu time spent up to now is       38.5 secs

     total energy              =      -2.31351050 Ry
     estimated scf accuracy    <          1.6E-09 Ry

     iteration # 27     ecut=    20.00 Ry     beta= 0.70
     Davidson diagonalization with overlap

---- Real-time Memory Report at c_bands before calling an iterative solver
           330 MiB given to the printing process from OS
             0 MiB allocation reported by mallinfo(arena+hblkhd)
           235 MiB available memory on the node where the printing process lives
------------------
     ethr =  2.90E-11,  avg # of iterations =  2.0

     negative rho (up, down):  9.122E-02 0.000E+00

     total cpu time spent up to now is       39.2 secs

     total energy              =      -2.31351373 Ry
     estimated scf accuracy    <          1.6E-09 Ry

     iteration # 28     ecut=    20.00 Ry     beta= 0.70
     Davidson diagonalization with overlap

---- Real-time Memory Report at c_bands before calling an iterative solver
           330 MiB given to the printing process from OS
             0 MiB allocation reported by mallinfo(arena+hblkhd)
           235 MiB available memory on the node where the printing process lives
------------------
     ethr =  2.90E-11,  avg # of iterations =  3.0

     negative rho (up, down):  9.122E-02 0.000E+00

     total cpu time spent up to now is       39.9 secs

     total energy              =      -2.31351044 Ry
     estimated scf accuracy    <          1.8E-09 Ry

     iteration # 29     ecut=    20.00 Ry     beta= 0.70
     Davidson diagonalization with overlap

---- Real-time Memory Report at c_bands before calling an iterative solver
           330 MiB given to the printing process from OS
             0 MiB allocation reported by mallinfo(arena+hblkhd)
           235 MiB available memory on the node where the printing process lives
------------------
     ethr =  2.90E-11,  avg # of iterations =  3.0

     negative rho (up, down):  9.122E-02 0.000E+00

     total cpu time spent up to now is       40.5 secs

     total energy              =      -2.31350970 Ry
     estimated scf accuracy    <          1.9E-09 Ry

     iteration # 30     ecut=    20.00 Ry     beta= 0.70
     Davidson diagonalization with overlap

---- Real-time Memory Report at c_bands before calling an iterative solver
           330 MiB given to the printing process from OS
             0 MiB allocation reported by mallinfo(arena+hblkhd)
           235 MiB available memory on the node where the printing process lives
------------------
     ethr =  2.90E-11,  avg # of iterations =  3.0

     negative rho (up, down):  9.121E-02 0.000E+00

     total cpu time spent up to now is       41.2 secs

     total energy              =      -2.31352423 Ry
     estimated scf accuracy    <          2.5E-09 Ry

     iteration # 31     ecut=    20.00 Ry     beta= 0.70
     Davidson diagonalization with overlap

---- Real-time Memory Report at c_bands before calling an iterative solver
           330 MiB given to the printing process from OS
             0 MiB allocation reported by mallinfo(arena+hblkhd)
           235 MiB available memory on the node where the printing process lives
------------------
     ethr =  2.90E-11,  avg # of iterations =  4.0

     negative rho (up, down):  9.122E-02 0.000E+00

     total cpu time spent up to now is       41.9 secs

     total energy              =      -2.31350489 Ry
     estimated scf accuracy    <          9.7E-09 Ry

     iteration # 32     ecut=    20.00 Ry     beta= 0.70
     Davidson diagonalization with overlap

---- Real-time Memory Report at c_bands before calling an iterative solver
           330 MiB given to the printing process from OS
             0 MiB allocation reported by mallinfo(arena+hblkhd)
           235 MiB available memory on the node where the printing process lives
------------------
     ethr =  2.90E-11,  avg # of iterations =  4.0

     negative rho (up, down):  9.122E-02 0.000E+00

     total cpu time spent up to now is       42.6 secs

     total energy              =      -2.31351122 Ry
     estimated scf accuracy    <          8.8E-10 Ry

     iteration # 33     ecut=    20.00 Ry     beta= 0.70
     Davidson diagonalization with overlap

---- Real-time Memory Report at c_bands before calling an iterative solver
           330 MiB given to the printing process from OS
             0 MiB allocation reported by mallinfo(arena+hblkhd)
           235 MiB available memory on the node where the printing process lives
------------------
     ethr =  2.90E-11,  avg # of iterations =  4.0

     negative rho (up, down):  9.122E-02 0.000E+00

     total cpu time spent up to now is       43.3 secs

     total energy              =      -2.31351391 Ry
     estimated scf accuracy    <          3.1E-09 Ry

     iteration # 34     ecut=    20.00 Ry     beta= 0.70
     Davidson diagonalization with overlap

---- Real-time Memory Report at c_bands before calling an iterative solver
           330 MiB given to the printing process from OS
             0 MiB allocation reported by mallinfo(arena+hblkhd)
           235 MiB available memory on the node where the printing process lives
------------------
     ethr =  2.90E-11,  avg # of iterations =  4.0

     negative rho (up, down):  9.122E-02 0.000E+00

     total cpu time spent up to now is       44.0 secs

     total energy              =      -2.31350933 Ry
     estimated scf accuracy    <          2.1E-09 Ry

     iteration # 35     ecut=    20.00 Ry     beta= 0.70
     Davidson diagonalization with overlap

---- Real-time Memory Report at c_bands before calling an iterative solver
           330 MiB given to the printing process from OS
             0 MiB allocation reported by mallinfo(arena+hblkhd)
           235 MiB available memory on the node where the printing process lives
------------------
     ethr =  2.90E-11,  avg # of iterations =  4.0

     negative rho (up, down):  9.122E-02 0.000E+00

     total cpu time spent up to now is       44.7 secs

     total energy              =      -2.31350674 Ry
     estimated scf accuracy    <          1.4E-09 Ry

     iteration # 36     ecut=    20.00 Ry     beta= 0.70
     Davidson diagonalization with overlap

---- Real-time Memory Report at c_bands before calling an iterative solver
           330 MiB given to the printing process from OS
             0 MiB allocation reported by mallinfo(arena+hblkhd)
           235 MiB available memory on the node where the printing process lives
------------------
     ethr =  2.90E-11,  avg # of iterations =  4.0

     negative rho (up, down):  9.122E-02 0.000E+00

     total cpu time spent up to now is       45.4 secs

     total energy              =      -2.31351489 Ry
     estimated scf accuracy    <          2.2E-09 Ry

     iteration # 37     ecut=    20.00 Ry     beta= 0.70
     Davidson diagonalization with overlap

---- Real-time Memory Report at c_bands before calling an iterative solver
           330 MiB given to the printing process from OS
             0 MiB allocation reported by mallinfo(arena+hblkhd)
           235 MiB available memory on the node where the printing process lives
------------------
     ethr =  2.90E-11,  avg # of iterations =  4.0

     negative rho (up, down):  9.122E-02 0.000E+00

     total cpu time spent up to now is       46.1 secs

     total energy              =      -2.31351286 Ry
     estimated scf accuracy    <          8.3E-10 Ry

     iteration # 38     ecut=    20.00 Ry     beta= 0.70
     Davidson diagonalization with overlap

---- Real-time Memory Report at c_bands before calling an iterative solver
           330 MiB given to the printing process from OS
             0 MiB allocation reported by mallinfo(arena+hblkhd)
           235 MiB available memory on the node where the printing process lives
------------------
     ethr =  2.90E-11,  avg # of iterations =  4.0

     negative rho (up, down):  9.122E-02 0.000E+00

     total cpu time spent up to now is       46.9 secs

     total energy              =      -2.31351059 Ry
     estimated scf accuracy    <          1.3E-09 Ry

     iteration # 39     ecut=    20.00 Ry     beta= 0.70
     Davidson diagonalization with overlap

---- Real-time Memory Report at c_bands before calling an iterative solver
           330 MiB given to the printing process from OS
             0 MiB allocation reported by mallinfo(arena+hblkhd)
           235 MiB available memory on the node where the printing process lives
------------------
     ethr =  2.90E-11,  avg # of iterations =  4.0

     negative rho (up, down):  9.122E-02 0.000E+00

     total cpu time spent up to now is       47.6 secs

     total energy              =      -2.31351257 Ry
     estimated scf accuracy    <          1.7E-09 Ry

     iteration # 40     ecut=    20.00 Ry     beta= 0.70
     Davidson diagonalization with overlap

---- Real-time Memory Report at c_bands before calling an iterative solver
           330 MiB given to the printing process from OS
             0 MiB allocation reported by mallinfo(arena+hblkhd)
           235 MiB available memory on the node where the printing process lives
------------------
     ethr =  2.90E-11,  avg # of iterations =  4.0

     negative rho (up, down):  9.122E-02 0.000E+00

     total cpu time spent up to now is       48.3 secs

     total energy              =      -2.31351272 Ry
     estimated scf accuracy    <          3.3E-09 Ry

     iteration # 41     ecut=    20.00 Ry     beta= 0.70
     Davidson diagonalization with overlap

---- Real-time Memory Report at c_bands before calling an iterative solver
           330 MiB given to the printing process from OS
             0 MiB allocation reported by mallinfo(arena+hblkhd)
           235 MiB available memory on the node where the printing process lives
------------------
     ethr =  2.90E-11,  avg # of iterations =  5.0

     negative rho (up, down):  9.122E-02 0.000E+00

     total cpu time spent up to now is       49.0 secs

     total energy              =      -2.31351167 Ry
     estimated scf accuracy    <          2.4E-09 Ry

     iteration # 42     ecut=    20.00 Ry     beta= 0.70
     Davidson diagonalization with overlap

---- Real-time Memory Report at c_bands before calling an iterative solver
           330 MiB given to the printing process from OS
             0 MiB allocation reported by mallinfo(arena+hblkhd)
           235 MiB available memory on the node where the printing process lives
------------------
     ethr =  2.90E-11,  avg # of iterations =  4.0

     negative rho (up, down):  9.122E-02 0.000E+00

     total cpu time spent up to now is       49.7 secs

     total energy              =      -2.31351174 Ry
     estimated scf accuracy    <          1.5E-09 Ry

     iteration # 43     ecut=    20.00 Ry     beta= 0.70
     Davidson diagonalization with overlap

---- Real-time Memory Report at c_bands before calling an iterative solver
           330 MiB given to the printing process from OS
             0 MiB allocation reported by mallinfo(arena+hblkhd)
           235 MiB available memory on the node where the printing process lives
------------------
     ethr =  2.90E-11,  avg # of iterations =  1.0

     negative rho (up, down):  9.122E-02 0.000E+00

     total cpu time spent up to now is       50.3 secs

     total energy              =      -2.31351498 Ry
     estimated scf accuracy    <          1.5E-09 Ry

     iteration # 44     ecut=    20.00 Ry     beta= 0.70
     Davidson diagonalization with overlap

---- Real-time Memory Report at c_bands before calling an iterative solver
           330 MiB given to the printing process from OS
             0 MiB allocation reported by mallinfo(arena+hblkhd)
           235 MiB available memory on the node where the printing process lives
------------------
     ethr =  2.90E-11,  avg # of iterations =  3.0

     negative rho (up, down):  9.122E-02 0.000E+00

     total cpu time spent up to now is       51.0 secs

     total energy              =      -2.31351123 Ry
     estimated scf accuracy    <          1.1E-09 Ry

     iteration # 45     ecut=    20.00 Ry     beta= 0.70
     Davidson diagonalization with overlap

---- Real-time Memory Report at c_bands before calling an iterative solver
           330 MiB given to the printing process from OS
             0 MiB allocation reported by mallinfo(arena+hblkhd)
           235 MiB available memory on the node where the printing process lives
------------------
     ethr =  2.90E-11,  avg # of iterations =  4.0

     negative rho (up, down):  9.122E-02 0.000E+00

     total cpu time spent up to now is       51.7 secs

     total energy              =      -2.31351045 Ry
     estimated scf accuracy    <          1.0E-09 Ry

     iteration # 46     ecut=    20.00 Ry     beta= 0.70
     Davidson diagonalization with overlap

---- Real-time Memory Report at c_bands before calling an iterative solver
           330 MiB given to the printing process from OS
             0 MiB allocation reported by mallinfo(arena+hblkhd)
           235 MiB available memory on the node where the printing process lives
------------------
     ethr =  2.90E-11,  avg # of iterations =  3.0

     negative rho (up, down):  9.122E-02 0.000E+00

     total cpu time spent up to now is       52.4 secs

     total energy              =      -2.31350932 Ry
     estimated scf accuracy    <          1.7E-09 Ry

     iteration # 47     ecut=    20.00 Ry     beta= 0.70
     Davidson diagonalization with overlap

---- Real-time Memory Report at c_bands before calling an iterative solver
           330 MiB given to the printing process from OS
             0 MiB allocation reported by mallinfo(arena+hblkhd)
           235 MiB available memory on the node where the printing process lives
------------------
     ethr =  2.90E-11,  avg # of iterations =  4.0

     negative rho (up, down):  9.122E-02 0.000E+00

     total cpu time spent up to now is       53.1 secs

     total energy              =      -2.31351318 Ry
     estimated scf accuracy    <          1.3E-09 Ry

     iteration # 48     ecut=    20.00 Ry     beta= 0.70
     Davidson diagonalization with overlap

---- Real-time Memory Report at c_bands before calling an iterative solver
           330 MiB given to the printing process from OS
             0 MiB allocation reported by mallinfo(arena+hblkhd)
           235 MiB available memory on the node where the printing process lives
------------------
     ethr =  2.90E-11,  avg # of iterations =  4.0

     negative rho (up, down):  9.122E-02 0.000E+00

     total cpu time spent up to now is       53.8 secs

     total energy              =      -2.31351327 Ry
     estimated scf accuracy    <          1.1E-09 Ry

     iteration # 49     ecut=    20.00 Ry     beta= 0.70
     Davidson diagonalization with overlap

---- Real-time Memory Report at c_bands before calling an iterative solver
           330 MiB given to the printing process from OS
             0 MiB allocation reported by mallinfo(arena+hblkhd)
           235 MiB available memory on the node where the printing process lives
------------------
     ethr =  2.90E-11,  avg # of iterations =  2.0

     negative rho (up, down):  9.122E-02 0.000E+00

     total cpu time spent up to now is       54.5 secs

     total energy              =      -2.31351003 Ry
     estimated scf accuracy    <          9.6E-10 Ry

     iteration # 50     ecut=    20.00 Ry     beta= 0.70
     Davidson diagonalization with overlap

---- Real-time Memory Report at c_bands before calling an iterative solver
           330 MiB given to the printing process from OS
             0 MiB allocation reported by mallinfo(arena+hblkhd)
           235 MiB available memory on the node where the printing process lives
------------------
     ethr =  2.90E-11,  avg # of iterations =  3.0

     negative rho (up, down):  9.122E-02 0.000E+00

     total cpu time spent up to now is       55.1 secs

     total energy              =      -2.31351769 Ry
     estimated scf accuracy    <          1.3E-09 Ry

     iteration # 51     ecut=    20.00 Ry     beta= 0.70
     Davidson diagonalization with overlap

[...]
------------------
     ethr =  2.69E-11,  avg # of iterations =  4.0

     negative rho (up, down):  9.122E-02 0.000E+00

     total cpu time spent up to now is       72.8 secs

     total energy              =      -2.31350461 Ry
     estimated scf accuracy    <          9.5E-10 Ry

     iteration # 77     ecut=    20.00 Ry     beta= 0.70
     Davidson diagonalization with overlap

---- Real-time Memory Report at c_bands before calling an iterative solver
           330 MiB given to the printing process from OS
             0 MiB allocation reported by mallinfo(arena+hblkhd)
           235 MiB available memory on the node where the printing process lives
------------------
     ethr =  2.69E-11,  avg # of iterations =  4.0

     negative rho (up, down):  9.122E-02 0.000E+00

     total cpu time spent up to now is       73.5 secs

     total energy              =      -2.31350748 Ry
     estimated scf accuracy    <          8.1E-10 Ry

     iteration # 78     ecut=    20.00 Ry     beta= 0.70
     Davidson diagonalization with overlap

---- Real-time Memory Report at c_bands before calling an iterative solver
           330 MiB given to the printing process from OS
             0 MiB allocation reported by mallinfo(arena+hblkhd)
           235 MiB available memory on the node where the printing process lives
------------------
     ethr =  2.69E-11,  avg # of iterations =  2.0

     negative rho (up, down):  9.122E-02 0.000E+00

     total cpu time spent up to now is       74.2 secs

     total energy              =      -2.31351371 Ry
     estimated scf accuracy    <          8.6E-10 Ry

     iteration # 79     ecut=    20.00 Ry     beta= 0.70
     Davidson diagonalization with overlap

---- Real-time Memory Report at c_bands before calling an iterative solver
           330 MiB given to the printing process from OS
             0 MiB allocation reported by mallinfo(arena+hblkhd)
           235 MiB available memory on the node where the printing process lives
------------------
     ethr =  2.69E-11,  avg # of iterations =  4.0

     negative rho (up, down):  9.122E-02 0.000E+00

     total cpu time spent up to now is       74.9 secs

     total energy              =      -2.31351285 Ry
     estimated scf accuracy    <          1.7E-09 Ry

     iteration # 80     ecut=    20.00 Ry     beta= 0.70
     Davidson diagonalization with overlap

---- Real-time Memory Report at c_bands before calling an iterative solver
           330 MiB given to the printing process from OS
             0 MiB allocation reported by mallinfo(arena+hblkhd)
           235 MiB available memory on the node where the printing process lives
------------------
     ethr =  2.69E-11,  avg # of iterations =  3.0

     negative rho (up, down):  9.122E-02 0.000E+00

     total cpu time spent up to now is       75.5 secs

     total energy              =      -2.31351220 Ry
     estimated scf accuracy    <          1.5E-09 Ry

     iteration # 81     ecut=    20.00 Ry     beta= 0.70
     Davidson diagonalization with overlap

---- Real-time Memory Report at c_bands before calling an iterative solver
           330 MiB given to the printing process from OS
             0 MiB allocation reported by mallinfo(arena+hblkhd)
           235 MiB available memory on the node where the printing process lives
------------------
     ethr =  2.69E-11,  avg # of iterations =  3.0

     negative rho (up, down):  9.122E-02 0.000E+00

     total cpu time spent up to now is       76.2 secs

     total energy              =      -2.31351549 Ry
     estimated scf accuracy    <          1.2E-09 Ry

     iteration # 82     ecut=    20.00 Ry     beta= 0.70
     Davidson diagonalization with overlap

---- Real-time Memory Report at c_bands before calling an iterative solver
           330 MiB given to the printing process from OS
             0 MiB allocation reported by mallinfo(arena+hblkhd)
           235 MiB available memory on the node where the printing process lives
------------------
     ethr =  2.69E-11,  avg # of iterations =  3.0

     negative rho (up, down):  9.122E-02 0.000E+00

     total cpu time spent up to now is       76.9 secs

     total energy              =      -2.31351622 Ry
     estimated scf accuracy    <          1.6E-09 Ry

     iteration # 83     ecut=    20.00 Ry     beta= 0.70
     Davidson diagonalization with overlap

---- Real-time Memory Report at c_bands before calling an iterative solver
           330 MiB given to the printing process from OS
             0 MiB allocation reported by mallinfo(arena+hblkhd)
           235 MiB available memory on the node where the printing process lives
------------------
     ethr =  2.69E-11,  avg # of iterations =  4.0

     negative rho (up, down):  9.122E-02 0.000E+00

     total cpu time spent up to now is       77.6 secs

     total energy              =      -2.31351452 Ry
     estimated scf accuracy    <          1.1E-09 Ry

     iteration # 84     ecut=    20.00 Ry     beta= 0.70
     Davidson diagonalization with overlap

---- Real-time Memory Report at c_bands before calling an iterative solver
           330 MiB given to the printing process from OS
             0 MiB allocation reported by mallinfo(arena+hblkhd)
           235 MiB available memory on the node where the printing process lives
------------------
     ethr =  2.69E-11,  avg # of iterations =  4.0

     negative rho (up, down):  9.122E-02 0.000E+00

     total cpu time spent up to now is       78.3 secs

     total energy              =      -2.31350775 Ry
     estimated scf accuracy    <          1.5E-09 Ry

     iteration # 85     ecut=    20.00 Ry     beta= 0.70
     Davidson diagonalization with overlap

---- Real-time Memory Report at c_bands before calling an iterative solver
           330 MiB given to the printing process from OS
             0 MiB allocation reported by mallinfo(arena+hblkhd)
           235 MiB available memory on the node where the printing process lives
------------------
     ethr =  2.69E-11,  avg # of iterations =  4.0

     negative rho (up, down):  9.122E-02 0.000E+00

     total cpu time spent up to now is       79.0 secs

     total energy              =      -2.31350380 Ry
     estimated scf accuracy    <          4.8E-09 Ry

     iteration # 86     ecut=    20.00 Ry     beta= 0.70
     Davidson diagonalization with overlap

---- Real-time Memory Report at c_bands before calling an iterative solver
           330 MiB given to the printing process from OS
             0 MiB allocation reported by mallinfo(arena+hblkhd)
           235 MiB available memory on the node where the printing process lives
------------------
     ethr =  2.69E-11,  avg # of iterations =  4.0

     negative rho (up, down):  9.122E-02 0.000E+00

     total cpu time spent up to now is       79.7 secs

     total energy              =      -2.31351015 Ry
     estimated scf accuracy    <          9.1E-10 Ry

     iteration # 87     ecut=    20.00 Ry     beta= 0.70
     Davidson diagonalization with overlap

---- Real-time Memory Report at c_bands before calling an iterative solver
           330 MiB given to the printing process from OS
             0 MiB allocation reported by mallinfo(arena+hblkhd)
           235 MiB available memory on the node where the printing process lives
------------------
     ethr =  2.69E-11,  avg # of iterations =  4.0

     negative rho (up, down):  9.122E-02 0.000E+00

     total cpu time spent up to now is       80.4 secs

     total energy              =      -2.31350544 Ry
     estimated scf accuracy    <          9.6E-10 Ry

     iteration # 88     ecut=    20.00 Ry     beta= 0.70
     Davidson diagonalization with overlap

---- Real-time Memory Report at c_bands before calling an iterative solver
           330 MiB given to the printing process from OS
             0 MiB allocation reported by mallinfo(arena+hblkhd)
           235 MiB available memory on the node where the printing process lives
------------------
     ethr =  2.69E-11,  avg # of iterations =  4.0

     negative rho (up, down):  9.122E-02 0.000E+00

     total cpu time spent up to now is       81.1 secs

     total energy              =      -2.31350562 Ry
     estimated scf accuracy    <          1.1E-09 Ry

     iteration # 89     ecut=    20.00 Ry     beta= 0.70
     Davidson diagonalization with overlap

---- Real-time Memory Report at c_bands before calling an iterative solver
           330 MiB given to the printing process from OS
             0 MiB allocation reported by mallinfo(arena+hblkhd)
           235 MiB available memory on the node where the printing process lives
------------------
     ethr =  2.69E-11,  avg # of iterations =  2.0

     negative rho (up, down):  9.122E-02 0.000E+00

     total cpu time spent up to now is       81.8 secs

     total energy              =      -2.31351218 Ry
     estimated scf accuracy    <          1.0E-09 Ry

     iteration # 90     ecut=    20.00 Ry     beta= 0.70
     Davidson diagonalization with overlap

---- Real-time Memory Report at c_bands before calling an iterative solver
           330 MiB given to the printing process from OS
             0 MiB allocation reported by mallinfo(arena+hblkhd)
           235 MiB available memory on the node where the printing process lives
------------------
     ethr =  2.69E-11,  avg # of iterations =  4.0

     negative rho (up, down):  9.122E-02 0.000E+00

     total cpu time spent up to now is       82.5 secs

     total energy              =      -2.31351227 Ry
     estimated scf accuracy    <          1.3E-09 Ry

     iteration # 91     ecut=    20.00 Ry     beta= 0.70
     Davidson diagonalization with overlap

---- Real-time Memory Report at c_bands before calling an iterative solver
           330 MiB given to the printing process from OS
             0 MiB allocation reported by mallinfo(arena+hblkhd)
           235 MiB available memory on the node where the printing process lives
------------------
     ethr =  2.69E-11,  avg # of iterations =  1.0

     negative rho (up, down):  9.122E-02 0.000E+00

     total cpu time spent up to now is       83.1 secs

     total energy              =      -2.31350774 Ry
     estimated scf accuracy    <          1.3E-09 Ry

     iteration # 92     ecut=    20.00 Ry     beta= 0.70
     Davidson diagonalization with overlap

---- Real-time Memory Report at c_bands before calling an iterative solver
           330 MiB given to the printing process from OS
             0 MiB allocation reported by mallinfo(arena+hblkhd)
           235 MiB available memory on the node where the printing process lives
------------------
     ethr =  2.69E-11,  avg # of iterations =  4.0

     negative rho (up, down):  9.121E-02 0.000E+00

     total cpu time spent up to now is       83.8 secs

     total energy              =      -2.31351704 Ry
     estimated scf accuracy    <          4.3E-09 Ry

     iteration # 93     ecut=    20.00 Ry     beta= 0.70
     Davidson diagonalization with overlap

---- Real-time Memory Report at c_bands before calling an iterative solver
           330 MiB given to the printing process from OS
             0 MiB allocation reported by mallinfo(arena+hblkhd)
           235 MiB available memory on the node where the printing process lives
------------------
     ethr =  2.69E-11,  avg # of iterations =  4.0

     negative rho (up, down):  9.122E-02 0.000E+00

     total cpu time spent up to now is       84.5 secs

     total energy              =      -2.31350399 Ry
     estimated scf accuracy    <          1.8E-09 Ry

     iteration # 94     ecut=    20.00 Ry     beta= 0.70
     Davidson diagonalization with overlap

---- Real-time Memory Report at c_bands before calling an iterative solver
           330 MiB given to the printing process from OS
             0 MiB allocation reported by mallinfo(arena+hblkhd)
           235 MiB available memory on the node where the printing process lives
------------------
     ethr =  2.69E-11,  avg # of iterations =  4.0

     negative rho (up, down):  9.122E-02 0.000E+00

     total cpu time spent up to now is       85.2 secs

     total energy              =      -2.31350464 Ry
     estimated scf accuracy    <          8.2E-10 Ry

     iteration # 95     ecut=    20.00 Ry     beta= 0.70
     Davidson diagonalization with overlap

---- Real-time Memory Report at c_bands before calling an iterative solver
           330 MiB given to the printing process from OS
             0 MiB allocation reported by mallinfo(arena+hblkhd)
           235 MiB available memory on the node where the printing process lives
------------------
     ethr =  2.69E-11,  avg # of iterations =  2.0

     negative rho (up, down):  9.122E-02 0.000E+00

     total cpu time spent up to now is       85.9 secs

     total energy              =      -2.31351126 Ry
     estimated scf accuracy    <          8.6E-10 Ry

     iteration # 96     ecut=    20.00 Ry     beta= 0.70
     Davidson diagonalization with overlap

---- Real-time Memory Report at c_bands before calling an iterative solver
           330 MiB given to the printing process from OS
             0 MiB allocation reported by mallinfo(arena+hblkhd)
           235 MiB available memory on the node where the printing process lives
------------------
     ethr =  2.69E-11,  avg # of iterations =  4.0

     negative rho (up, down):  9.122E-02 0.000E+00

     total cpu time spent up to now is       86.6 secs

     total energy              =      -2.31351017 Ry
     estimated scf accuracy    <          9.9E-10 Ry

     iteration # 97     ecut=    20.00 Ry     beta= 0.70
     Davidson diagonalization with overlap

---- Real-time Memory Report at c_bands before calling an iterative solver
           330 MiB given to the printing process from OS
             0 MiB allocation reported by mallinfo(arena+hblkhd)
           235 MiB available memory on the node where the printing process lives
------------------
     ethr =  2.69E-11,  avg # of iterations =  4.0

     negative rho (up, down):  9.122E-02 0.000E+00

     total cpu time spent up to now is       87.3 secs

     total energy              =      -2.31351423 Ry
     estimated scf accuracy    <          1.0E-09 Ry

     iteration # 98     ecut=    20.00 Ry     beta= 0.70
     Davidson diagonalization with overlap

---- Real-time Memory Report at c_bands before calling an iterative solver
           330 MiB given to the printing process from OS
             0 MiB allocation reported by mallinfo(arena+hblkhd)
           235 MiB available memory on the node where the printing process lives
------------------
     ethr =  2.69E-11,  avg # of iterations =  3.0

     negative rho (up, down):  9.122E-02 0.000E+00

     total cpu time spent up to now is       88.0 secs

     total energy              =      -2.31351423 Ry
     estimated scf accuracy    <          6.1E-10 Ry

     iteration # 99     ecut=    20.00 Ry     beta= 0.70
     Davidson diagonalization with overlap

---- Real-time Memory Report at c_bands before calling an iterative solver
           330 MiB given to the printing process from OS
             0 MiB allocation reported by mallinfo(arena+hblkhd)
           235 MiB available memory on the node where the printing process lives
------------------
     ethr =  2.69E-11,  avg # of iterations =  2.0

     negative rho (up, down):  9.122E-02 0.000E+00

     total cpu time spent up to now is       88.6 secs

     total energy              =      -2.31351444 Ry
     estimated scf accuracy    <          6.6E-10 Ry

     iteration #100     ecut=    20.00 Ry     beta= 0.70
     Davidson diagonalization with overlap

---- Real-time Memory Report at c_bands before calling an iterative solver
           330 MiB given to the printing process from OS
             0 MiB allocation reported by mallinfo(arena+hblkhd)
           235 MiB available memory on the node where the printing process lives
------------------
     ethr =  2.69E-11,  avg # of iterations =  2.0

     negative rho (up, down):  9.122E-02 0.000E+00

     total cpu time spent up to now is       89.3 secs

     total energy              =      -2.31351440 Ry
     estimated scf accuracy    <          5.8E-10 Ry

     End of self-consistent calculation

     convergence NOT achieved after 100 iterations: stopping

     Writing config to output data dir ./.save/
     Message from routine punch:
     wavefunctions written to file

     init_run     :      0.57s CPU      0.62s WALL (       1 calls)
     electrons    :     84.79s CPU     85.08s WALL (       7 calls)
     update_pot   :      2.41s CPU      2.46s WALL (       6 calls)
     forces       :      0.85s CPU      0.86s WALL (       6 calls)

     Called by init_run:
     wfcinit      :      0.05s CPU      0.05s WALL (       1 calls)
     wfcinit:atom :      0.00s CPU      0.00s WALL (       1 calls)
     wfcinit:wfcr :      0.05s CPU      0.05s WALL (       1 calls)
     potinit      :      0.36s CPU      0.38s WALL (       1 calls)
     hinit0       :      0.03s CPU      0.03s WALL (       1 calls)

     Called by electrons:
     c_bands      :     18.94s CPU     18.99s WALL (     129 calls)
     sum_band     :     10.02s CPU     10.05s WALL (     129 calls)
     v_of_rho     :     44.91s CPU     45.05s WALL (     132 calls)
     v_h          :      2.58s CPU      2.58s WALL (     132 calls)
     v_xc         :     42.33s CPU     42.46s WALL (     132 calls)
     newd         :      3.22s CPU      3.22s WALL (     132 calls)
     mix_rho      :      9.20s CPU      9.25s WALL (     129 calls)

     Called by c_bands:
     init_us_2    :      0.28s CPU      0.28s WALL (     259 calls)
     init_us_2:cp :      0.28s CPU      0.28s WALL (     259 calls)
     cegterg      :     18.74s CPU     18.79s WALL (     129 calls)

     Called by sum_band:
     sum_band:wei :      0.00s CPU      0.00s WALL (     129 calls)
     sum_band:loo :      3.03s CPU      3.04s WALL (     129 calls)
     sum_band:buf :      0.00s CPU      0.00s WALL (     129 calls)
     sum_band:ini :      0.14s CPU      0.15s WALL (     129 calls)
     sum_band:cal :      0.04s CPU      0.04s WALL (     129 calls)
     sum_band:bec :      0.00s CPU      0.00s WALL (     129 calls)
     addusdens    :      0.86s CPU      0.87s WALL (     129 calls)
     addusd:skk   :      0.25s CPU      0.25s WALL (     129 calls)
     addusd:dgemm :      0.18s CPU      0.19s WALL (     129 calls)
     addusd:qvan2 :      0.22s CPU      0.23s WALL (     129 calls)

     Called by *egterg:
     cdiaghg      :      0.01s CPU      0.01s WALL (     525 calls)
     cegterg:over :      0.22s CPU      0.23s WALL (     406 calls)
     cegterg:upda :      0.17s CPU      0.17s WALL (     406 calls)
     cegterg:last :      0.33s CPU      0.33s WALL (     314 calls)
     h_psi        :     17.67s CPU     17.72s WALL (     536 calls)
     s_psi        :      0.09s CPU      0.09s WALL (     536 calls)
     g_psi        :      0.08s CPU      0.08s WALL (     406 calls)

     Called by h_psi:
     h_psi:calbec :      0.13s CPU      0.13s WALL (     536 calls)
     vloc_psi     :     17.40s CPU     17.44s WALL (     536 calls)
     add_vuspsi   :      0.10s CPU      0.10s WALL (     536 calls)

     General routines
     calbec       :      0.17s CPU      0.17s WALL (     689 calls)
     fft          :     22.63s CPU     22.65s WALL (    1474 calls)
     ffts         :      2.04s CPU      2.05s WALL (     129 calls)
     fftw         :     18.09s CPU     18.12s WALL (    1864 calls)
     davcio       :      0.01s CPU      0.02s WALL (      19 calls)


     PWSCF        :   1m28.98s CPU   1m29.38s WALL


   This run was terminated on:   3:20: 6  28Feb2022            

=------------------------------------------------------------------------------=
   JOB DONE.
=------------------------------------------------------------------------------=
