
     Program PWSCF v.7.0 starts on 28Feb2022 at 22:16:41 

     This program is part of the open-source Quantum ESPRESSO suite
     for quantum simulation of materials; please cite
         "P. Giannozzi et al., J. Phys.:Condens. Matter 21 395502 (2009);
         "P. Giannozzi et al., J. Phys.:Condens. Matter 29 465901 (2017);
         "P. Giannozzi et al., J. Chem. Phys. 152 154105 (2020);
          URL http://www.quantum-espresso.org", 
     in publications or presentations arising from this work. More details at
     http://www.quantum-espresso.org/quote

     Serial version
     1284 MiB available memory on the printing compute node when the environment starts

     Waiting for input...
     Reading input from standard input

     Current dimensions of program PWSCF are:
     Max number of different atomic species (ntypx) = 10
     Max number of k-points (npk) =  40000
     Max angular momentum in pseudopotentials (lmaxx) =  4

    ============================================================
    |  pseudopotential report for atomic species:  1           |
    |        pseudo potential version   7   3   2              |
    ------------------------------------------------------------
    |  hydrogen            PBE                  exchange-corr  |
    |  z =   1.    zv( 1) =   1.    exfact =   5.00000         |
    |  ifpcor =  0           atomic energy =  -0.91772 Ry      |
    |  index    orbital      occupation    energy              |
    |    1        100           1.00       -0.48               |
    |  rinner =  0.5000                                        |
    |    new generation scheme:                                |
    |    nbeta =  1     kkbeta =  271     rcloc =    0.6000    |
    |    ibeta    l     epsilon   rcut                         |
    |      1       0      -0.48   0.80                         |
    ============================================================

     IMPORTANT: XC functional enforced from input :
     Exchange-correlation= BLYP
                           (   1   3   1   3   0   0   0)
     Any further DFT definition will be discarded
     Please, verify this is what you really want


     G-vector sticks info
     --------------------
     sticks:   dense  smooth     PW     G-vecs:    dense   smooth      PW
     Sum        2869    2869    793               115313   115313   17071

     Using Slab Decomposition



     bravais-lattice index     =            1
     lattice parameter (alat)  =      30.0000  a.u.
     unit-cell volume          =   27000.0000 (a.u.)^3
     number of atoms/cell      =            2
     number of atomic types    =            1
     number of electrons       =         2.00
     number of Kohn-Sham states=            2
     kinetic-energy cutoff     =      10.0000  Ry
     charge density cutoff     =      40.0000  Ry
     scf convergence threshold =      1.0E-08
     mixing beta               =       0.7000
     number of iterations used =            8  plain     mixing
     Exchange-correlation= BLYP
                           (   1   3   1   3   0   0   0)

     celldm(1)=  30.000000  celldm(2)=   0.000000  celldm(3)=   0.000000
     celldm(4)=   0.000000  celldm(5)=   0.000000  celldm(6)=   0.000000

     crystal axes: (cart. coord. in units of alat)
               a(1) = (   1.000000   0.000000   0.000000 )  
               a(2) = (   0.000000   1.000000   0.000000 )  
               a(3) = (   0.000000   0.000000   1.000000 )  

     reciprocal axes: (cart. coord. in units 2 pi/alat)
               b(1) = (  1.000000  0.000000  0.000000 )  
               b(2) = (  0.000000  1.000000  0.000000 )  
               b(3) = (  0.000000  0.000000  1.000000 )  


     PseudoPot. # 1 for hy read from file:
     /root/q-e/pseudo/H_US.van
     MD5 check sum: a9a9bfe98ff56cf4de197d71fc46bb44
     Pseudo is Ultrasoft, Zval =  1.0
     Generated by Vanderbilt code, v. 7.3.2
     Using radial grid of  399 points,  1 beta functions with: 
                l(1) =   0
     Q(r) pseudized with  8 coefficients,  rinner =    0.500

     atomic species   valence    mass     pseudopotential
        H              1.00     1.00784     hy( 1.00)

      8 Sym. Ops. (no inversion) found


                                    s                        frac. trans.

      isym =  1     identity                                     

 cryst.   s( 1) = (     1          0          0      )
                  (     0          1          0      )
                  (     0          0          1      )

 cart.    s( 1) = (  1.0000000  0.0000000  0.0000000 )
                  (  0.0000000  1.0000000  0.0000000 )
                  (  0.0000000  0.0000000  1.0000000 )


      isym =  2     180 deg rotation - cart. axis [1,0,0]        

 cryst.   s( 2) = (     1          0          0      )
                  (     0         -1          0      )
                  (     0          0         -1      )

 cart.    s( 2) = (  1.0000000  0.0000000  0.0000000 )
                  (  0.0000000 -1.0000000  0.0000000 )
                  (  0.0000000  0.0000000 -1.0000000 )


      isym =  3      90 deg rotation - cart. axis [-1,0,0]       

 cryst.   s( 3) = (     1          0          0      )
                  (     0          0         -1      )
                  (     0          1          0      )

 cart.    s( 3) = (  1.0000000  0.0000000  0.0000000 )
                  (  0.0000000  0.0000000  1.0000000 )
                  (  0.0000000 -1.0000000  0.0000000 )


      isym =  4      90 deg rotation - cart. axis [1,0,0]        

 cryst.   s( 4) = (     1          0          0      )
                  (     0          0          1      )
                  (     0         -1          0      )

 cart.    s( 4) = (  1.0000000  0.0000000  0.0000000 )
                  (  0.0000000  0.0000000 -1.0000000 )
                  (  0.0000000  1.0000000  0.0000000 )


      isym =  5     inv. 180 deg rotation - cart. axis [0,0,1]   

 cryst.   s( 5) = (     1          0          0      )
                  (     0          1          0      )
                  (     0          0         -1      )

 cart.    s( 5) = (  1.0000000  0.0000000  0.0000000 )
                  (  0.0000000  1.0000000  0.0000000 )
                  (  0.0000000  0.0000000 -1.0000000 )


      isym =  6     inv. 180 deg rotation - cart. axis [0,1,0]   

 cryst.   s( 6) = (     1          0          0      )
                  (     0         -1          0      )
                  (     0          0          1      )

 cart.    s( 6) = (  1.0000000  0.0000000  0.0000000 )
                  (  0.0000000 -1.0000000  0.0000000 )
                  (  0.0000000  0.0000000  1.0000000 )


      isym =  7     inv. 180 deg rotation - cart. axis [0,1,1]   

 cryst.   s( 7) = (     1          0          0      )
                  (     0          0         -1      )
                  (     0         -1          0      )

 cart.    s( 7) = (  1.0000000  0.0000000  0.0000000 )
                  (  0.0000000  0.0000000 -1.0000000 )
                  (  0.0000000 -1.0000000  0.0000000 )


      isym =  8     inv. 180 deg rotation - cart. axis [0,1,-1]  

 cryst.   s( 8) = (     1          0          0      )
                  (     0          0          1      )
                  (     0          1          0      )

 cart.    s( 8) = (  1.0000000  0.0000000  0.0000000 )
                  (  0.0000000  0.0000000  1.0000000 )
                  (  0.0000000  1.0000000  0.0000000 )


     point group C_4v (4mm) 
     there are  5 classes
     the character table:

       E     2C4   C2    2s_v  2s_d 
A_1    1.00  1.00  1.00  1.00  1.00
A_2    1.00  1.00  1.00 -1.00 -1.00
B_1    1.00 -1.00  1.00  1.00 -1.00
B_2    1.00 -1.00  1.00 -1.00  1.00
E      2.00  0.00 -2.00  0.00  0.00

     the symmetry operations in each class and the name of the first element:

     E        1
          identity                                               
     2C4      3    4
           90 deg rotation - cart. axis [-1,0,0]                 
     C2       2
          180 deg rotation - cart. axis [1,0,0]                  
     2s_v     5    6
          inv. 180 deg rotation - cart. axis [0,0,1]             
     2s_d     7    8
          inv. 180 deg rotation - cart. axis [0,1,1]             

   Cartesian axes

     site n.     atom                  positions (alat units)
         1           H   tau(   1) = (   0.0000000   0.0000000   0.0000000  )
         2           H   tau(   2) = (   0.0440936   0.0000000   0.0000000  )

   Crystallographic axes

     site n.     atom                  positions (cryst. coord.)
         1           H   tau(   1) = (  0.0000000  0.0000000  0.0000000  )
         2           H   tau(   2) = (  0.0440936  0.0000000  0.0000000  )

     number of k points=     1
                       cart. coord. in units 2pi/alat
        k(    1) = (  -0.5000000  -0.5000000  -0.5000000), wk =   2.0000000

                       cryst. coord.
        k(    1) = (  -0.5000000  -0.5000000  -0.5000000), wk =   2.0000000

     Dense  grid:   115313 G-vectors     FFT dimensions: (  64,  64,  64)

     Dynamical RAM for                 wfc:       0.44 MB

     Dynamical RAM for     wfc (w. buffer):       0.44 MB

     Dynamical RAM for           str. fact:       1.76 MB

     Dynamical RAM for           local pot:       0.00 MB

     Dynamical RAM for          nlocal pot:       0.44 MB

     Dynamical RAM for                qrad:       0.00 MB

     Dynamical RAM for          rho,v,vnew:      11.28 MB

     Dynamical RAM for               rhoin:       3.76 MB

     Dynamical RAM for            rho*nmix:      28.15 MB

     Dynamical RAM for           G-vectors:       7.48 MB

     Dynamical RAM for          h,s,v(r/c):       0.00 MB

     Dynamical RAM for          <psi|beta>:       0.00 MB

     Dynamical RAM for                 psi:       0.88 MB

     Dynamical RAM for                hpsi:       0.88 MB

     Dynamical RAM for                spsi:       0.88 MB

     Dynamical RAM for      wfcinit/wfcrot:       0.88 MB

     Dynamical RAM for           addusdens:      10.56 MB

     Estimated static dynamical RAM per process >      38.68 MB

     Estimated max dynamical RAM per process >      77.39 MB

     Initial potential from superposition of free atoms

     starting charge       2.0000, renormalised to       2.0000

     negative rho (up, down):  2.158E-01 0.000E+00
     Starting wfcs are    2 randomized atomic wfcs

     total cpu time spent up to now is        0.2 secs

     Self-consistent Calculation

     iteration #  1     ecut=    10.00 Ry     beta= 0.70
     Davidson diagonalization with overlap

---- Real-time Memory Report at c_bands before calling an iterative solver
            82 MiB given to the printing process from OS
             0 MiB allocation reported by mallinfo(arena+hblkhd)
          1235 MiB available memory on the node where the printing process lives
------------------
     ethr =  1.00E-02,  avg # of iterations =  5.0

     negative rho (up, down):  3.385E-01 0.000E+00

     total cpu time spent up to now is        0.5 secs

     total energy              =      -2.23530502 Ry
     estimated scf accuracy    <       0.12666132 Ry

     iteration #  2     ecut=    10.00 Ry     beta= 0.70
     Davidson diagonalization with overlap

---- Real-time Memory Report at c_bands before calling an iterative solver
           102 MiB given to the printing process from OS
             0 MiB allocation reported by mallinfo(arena+hblkhd)
          1195 MiB available memory on the node where the printing process lives
------------------
     ethr =  6.33E-03,  avg # of iterations =  1.0

     negative rho (up, down):  3.637E-01 0.000E+00

     total cpu time spent up to now is        0.7 secs

     total energy              =      -2.23411079 Ry
     estimated scf accuracy    <       0.00167378 Ry

     iteration #  3     ecut=    10.00 Ry     beta= 0.70
     Davidson diagonalization with overlap

---- Real-time Memory Report at c_bands before calling an iterative solver
           106 MiB given to the printing process from OS
             0 MiB allocation reported by mallinfo(arena+hblkhd)
          1191 MiB available memory on the node where the printing process lives
------------------
     ethr =  8.37E-05,  avg # of iterations =  9.0

     negative rho (up, down):  3.653E-01 0.000E+00

     total cpu time spent up to now is        1.0 secs

     total energy              =      -2.23370785 Ry
     estimated scf accuracy    <       0.00000839 Ry

     iteration #  4     ecut=    10.00 Ry     beta= 0.70
     Davidson diagonalization with overlap

---- Real-time Memory Report at c_bands before calling an iterative solver
           110 MiB given to the printing process from OS
             0 MiB allocation reported by mallinfo(arena+hblkhd)
          1188 MiB available memory on the node where the printing process lives
------------------
     ethr =  4.19E-07,  avg # of iterations =  5.0

     negative rho (up, down):  3.661E-01 0.000E+00

     total cpu time spent up to now is        1.2 secs

     total energy              =      -2.23334517 Ry
     estimated scf accuracy    <       0.00000164 Ry

     iteration #  5     ecut=    10.00 Ry     beta= 0.70
     Davidson diagonalization with overlap

---- Real-time Memory Report at c_bands before calling an iterative solver
           113 MiB given to the printing process from OS
             0 MiB allocation reported by mallinfo(arena+hblkhd)
          1184 MiB available memory on the node where the printing process lives
------------------
     ethr =  8.20E-08,  avg # of iterations =  3.0

     negative rho (up, down):  3.665E-01 0.000E+00

     total cpu time spent up to now is        1.4 secs

     total energy              =      -2.23324072 Ry
     estimated scf accuracy    <       0.00000126 Ry

     iteration #  6     ecut=    10.00 Ry     beta= 0.70
     Davidson diagonalization with overlap

---- Real-time Memory Report at c_bands before calling an iterative solver
           117 MiB given to the printing process from OS
             0 MiB allocation reported by mallinfo(arena+hblkhd)
          1181 MiB available memory on the node where the printing process lives
------------------
     ethr =  6.29E-08,  avg # of iterations =  3.0

     negative rho (up, down):  3.669E-01 0.000E+00

     total cpu time spent up to now is        1.6 secs

     total energy              =      -2.23310759 Ry
     estimated scf accuracy    <       0.00000086 Ry

     iteration #  7     ecut=    10.00 Ry     beta= 0.70
     Davidson diagonalization with overlap

---- Real-time Memory Report at c_bands before calling an iterative solver
           120 MiB given to the printing process from OS
             0 MiB allocation reported by mallinfo(arena+hblkhd)
          1177 MiB available memory on the node where the printing process lives
------------------
     ethr =  4.30E-08,  avg # of iterations =  3.0

     negative rho (up, down):  3.661E-01 0.000E+00

     total cpu time spent up to now is        1.9 secs

     total energy              =      -2.23337190 Ry
     estimated scf accuracy    <       0.00000101 Ry

     iteration #  8     ecut=    10.00 Ry     beta= 0.70
     Davidson diagonalization with overlap

---- Real-time Memory Report at c_bands before calling an iterative solver
           124 MiB given to the printing process from OS
             0 MiB allocation reported by mallinfo(arena+hblkhd)
          1174 MiB available memory on the node where the printing process lives
------------------
     ethr =  4.30E-08,  avg # of iterations =  3.0

     negative rho (up, down):  3.661E-01 0.000E+00

     total cpu time spent up to now is        2.1 secs

     total energy              =      -2.23339031 Ry
     estimated scf accuracy    <       0.00000073 Ry

     iteration #  9     ecut=    10.00 Ry     beta= 0.70
     Davidson diagonalization with overlap

---- Real-time Memory Report at c_bands before calling an iterative solver
           127 MiB given to the printing process from OS
             0 MiB allocation reported by mallinfo(arena+hblkhd)
          1170 MiB available memory on the node where the printing process lives
------------------
     ethr =  3.64E-08,  avg # of iterations =  2.0

     negative rho (up, down):  3.663E-01 0.000E+00

     total cpu time spent up to now is        2.3 secs

     total energy              =      -2.23334703 Ry
     estimated scf accuracy    <       0.00000078 Ry

     iteration # 10     ecut=    10.00 Ry     beta= 0.70
     Davidson diagonalization with overlap

---- Real-time Memory Report at c_bands before calling an iterative solver
           131 MiB given to the printing process from OS
             0 MiB allocation reported by mallinfo(arena+hblkhd)
          1167 MiB available memory on the node where the printing process lives
------------------
     ethr =  3.64E-08,  avg # of iterations =  2.0

     negative rho (up, down):  3.664E-01 0.000E+00

     total cpu time spent up to now is        2.5 secs

     total energy              =      -2.23332919 Ry
     estimated scf accuracy    <       0.00000032 Ry

     iteration # 11     ecut=    10.00 Ry     beta= 0.70
     Davidson diagonalization with overlap

---- Real-time Memory Report at c_bands before calling an iterative solver
           131 MiB given to the printing process from OS
             0 MiB allocation reported by mallinfo(arena+hblkhd)
          1167 MiB available memory on the node where the printing process lives
------------------
     ethr =  1.61E-08,  avg # of iterations =  4.0

     negative rho (up, down):  3.664E-01 0.000E+00

     total cpu time spent up to now is        2.8 secs

     total energy              =      -2.23339109 Ry
     estimated scf accuracy    <       0.00000462 Ry

     iteration # 12     ecut=    10.00 Ry     beta= 0.70
     Davidson diagonalization with overlap

---- Real-time Memory Report at c_bands before calling an iterative solver
           131 MiB given to the printing process from OS
             0 MiB allocation reported by mallinfo(arena+hblkhd)
          1167 MiB available memory on the node where the printing process lives
------------------
     ethr =  1.61E-08,  avg # of iterations =  3.0

     negative rho (up, down):  3.665E-01 0.000E+00

     total cpu time spent up to now is        3.0 secs

     total energy              =      -2.23337692 Ry
     estimated scf accuracy    <       0.00000579 Ry

     iteration # 13     ecut=    10.00 Ry     beta= 0.70
     Davidson diagonalization with overlap

---- Real-time Memory Report at c_bands before calling an iterative solver
           131 MiB given to the printing process from OS
             0 MiB allocation reported by mallinfo(arena+hblkhd)
          1167 MiB available memory on the node where the printing process lives
------------------
     ethr =  1.61E-08,  avg # of iterations =  2.0

     negative rho (up, down):  3.659E-01 0.000E+00

     total cpu time spent up to now is        3.2 secs

     total energy              =      -2.23363417 Ry
     estimated scf accuracy    <       0.00000530 Ry

     iteration # 14     ecut=    10.00 Ry     beta= 0.70
     Davidson diagonalization with overlap

---- Real-time Memory Report at c_bands before calling an iterative solver
           131 MiB given to the printing process from OS
             0 MiB allocation reported by mallinfo(arena+hblkhd)
          1167 MiB available memory on the node where the printing process lives
------------------
     ethr =  1.61E-08,  avg # of iterations =  4.0

     negative rho (up, down):  3.660E-01 0.000E+00

     total cpu time spent up to now is        3.4 secs

     total energy              =      -2.23360745 Ry
     estimated scf accuracy    <       0.00000971 Ry

     iteration # 15     ecut=    10.00 Ry     beta= 0.70
     Davidson diagonalization with overlap

---- Real-time Memory Report at c_bands before calling an iterative solver
           131 MiB given to the printing process from OS
             0 MiB allocation reported by mallinfo(arena+hblkhd)
          1167 MiB available memory on the node where the printing process lives
------------------
     ethr =  1.61E-08,  avg # of iterations =  3.0

     negative rho (up, down):  3.660E-01 0.000E+00

     total cpu time spent up to now is        3.6 secs

     total energy              =      -2.23360038 Ry
     estimated scf accuracy    <       0.00000635 Ry

     iteration # 16     ecut=    10.00 Ry     beta= 0.70
     Davidson diagonalization with overlap

---- Real-time Memory Report at c_bands before calling an iterative solver
           131 MiB given to the printing process from OS
             0 MiB allocation reported by mallinfo(arena+hblkhd)
          1167 MiB available memory on the node where the printing process lives
------------------
     ethr =  1.61E-08,  avg # of iterations =  2.0

     negative rho (up, down):  3.660E-01 0.000E+00

     total cpu time spent up to now is        3.9 secs

     total energy              =      -2.23358427 Ry
     estimated scf accuracy    <       0.00000612 Ry

     iteration # 17     ecut=    10.00 Ry     beta= 0.70
     Davidson diagonalization with overlap

---- Real-time Memory Report at c_bands before calling an iterative solver
           131 MiB given to the printing process from OS
             0 MiB allocation reported by mallinfo(arena+hblkhd)
          1167 MiB available memory on the node where the printing process lives
------------------
     ethr =  1.61E-08,  avg # of iterations =  3.0

     negative rho (up, down):  3.658E-01 0.000E+00

     total cpu time spent up to now is        4.1 secs

     total energy              =      -2.23363362 Ry
     estimated scf accuracy    <       0.00000754 Ry

     iteration # 18     ecut=    10.00 Ry     beta= 0.70
     Davidson diagonalization with overlap

---- Real-time Memory Report at c_bands before calling an iterative solver
           131 MiB given to the printing process from OS
             0 MiB allocation reported by mallinfo(arena+hblkhd)
          1167 MiB available memory on the node where the printing process lives
------------------
     ethr =  1.61E-08,  avg # of iterations =  3.0

     negative rho (up, down):  3.655E-01 0.000E+00

     total cpu time spent up to now is        4.3 secs

     total energy              =      -2.23351843 Ry
     estimated scf accuracy    <       0.00000774 Ry

     iteration # 19     ecut=    10.00 Ry     beta= 0.70
     Davidson diagonalization with overlap

---- Real-time Memory Report at c_bands before calling an iterative solver
           131 MiB given to the printing process from OS
             0 MiB allocation reported by mallinfo(arena+hblkhd)
          1167 MiB available memory on the node where the printing process lives
------------------
     ethr =  1.61E-08,  avg # of iterations =  4.0

     negative rho (up, down):  3.666E-01 0.000E+00

     total cpu time spent up to now is        4.6 secs

     total energy              =      -2.23313117 Ry
     estimated scf accuracy    <       0.00000159 Ry

     iteration # 20     ecut=    10.00 Ry     beta= 0.70
     Davidson diagonalization with overlap

---- Real-time Memory Report at c_bands before calling an iterative solver
           131 MiB given to the printing process from OS
             0 MiB allocation reported by mallinfo(arena+hblkhd)
          1167 MiB available memory on the node where the printing process lives
------------------
     ethr =  1.61E-08,  avg # of iterations =  4.0

     negative rho (up, down):  3.668E-01 0.000E+00

     total cpu time spent up to now is        4.8 secs

     total energy              =      -2.23292805 Ry
     estimated scf accuracy    <       0.00000148 Ry

     iteration # 21     ecut=    10.00 Ry     beta= 0.70
     Davidson diagonalization with overlap

---- Real-time Memory Report at c_bands before calling an iterative solver
           131 MiB given to the printing process from OS
             0 MiB allocation reported by mallinfo(arena+hblkhd)
          1167 MiB available memory on the node where the printing process lives
------------------
     ethr =  1.61E-08,  avg # of iterations =  3.0

     negative rho (up, down):  3.668E-01 0.000E+00

     total cpu time spent up to now is        5.0 secs

     total energy              =      -2.23295875 Ry
     estimated scf accuracy    <       0.00000081 Ry

     iteration # 22     ecut=    10.00 Ry     beta= 0.70
     Davidson diagonalization with overlap

---- Real-time Memory Report at c_bands before calling an iterative solver
           131 MiB given to the printing process from OS
             0 MiB allocation reported by mallinfo(arena+hblkhd)
          1167 MiB available memory on the node where the printing process lives
------------------
     ethr =  1.61E-08,  avg # of iterations =  2.0

     negative rho (up, down):  3.667E-01 0.000E+00

     total cpu time spent up to now is        5.2 secs

     total energy              =      -2.23325227 Ry
     estimated scf accuracy    <       0.00000075 Ry

     iteration # 23     ecut=    10.00 Ry     beta= 0.70
     Davidson diagonalization with overlap

---- Real-time Memory Report at c_bands before calling an iterative solver
           131 MiB given to the printing process from OS
             0 MiB allocation reported by mallinfo(arena+hblkhd)
          1167 MiB available memory on the node where the printing process lives
------------------
     ethr =  1.61E-08,  avg # of iterations =  7.0

     negative rho (up, down):  3.668E-01 0.000E+00

     total cpu time spent up to now is        5.5 secs

     total energy              =      -2.23425022 Ry
     estimated scf accuracy    <       0.00016937 Ry

     iteration # 24     ecut=    10.00 Ry     beta= 0.70
     Davidson diagonalization with overlap

---- Real-time Memory Report at c_bands before calling an iterative solver
           131 MiB given to the printing process from OS
             0 MiB allocation reported by mallinfo(arena+hblkhd)
          1167 MiB available memory on the node where the printing process lives
------------------
     ethr =  1.61E-08,  avg # of iterations =  4.0

     negative rho (up, down):  3.667E-01 0.000E+00

     total cpu time spent up to now is        5.8 secs

     total energy              =      -2.23236233 Ry
     estimated scf accuracy    <       0.00015292 Ry

     iteration # 25     ecut=    10.00 Ry     beta= 0.70
     Davidson diagonalization with overlap

---- Real-time Memory Report at c_bands before calling an iterative solver
           131 MiB given to the printing process from OS
             0 MiB allocation reported by mallinfo(arena+hblkhd)
          1167 MiB available memory on the node where the printing process lives
------------------
     ethr =  1.61E-08,  avg # of iterations =  6.0

     negative rho (up, down):  3.667E-01 0.000E+00

     total cpu time spent up to now is        6.0 secs

     total energy              =      -2.23336584 Ry
     estimated scf accuracy    <       0.00000409 Ry

     iteration # 26     ecut=    10.00 Ry     beta= 0.70
     Davidson diagonalization with overlap

---- Real-time Memory Report at c_bands before calling an iterative solver
           131 MiB given to the printing process from OS
             0 MiB allocation reported by mallinfo(arena+hblkhd)
          1167 MiB available memory on the node where the printing process lives
------------------
     ethr =  1.61E-08,  avg # of iterations =  3.0

     negative rho (up, down):  3.666E-01 0.000E+00

     total cpu time spent up to now is        6.3 secs

     total energy              =      -2.23324656 Ry
     estimated scf accuracy    <       0.00001001 Ry

     iteration # 27     ecut=    10.00 Ry     beta= 0.70
     Davidson diagonalization with overlap

---- Real-time Memory Report at c_bands before calling an iterative solver
           131 MiB given to the printing process from OS
             0 MiB allocation reported by mallinfo(arena+hblkhd)
          1167 MiB available memory on the node where the printing process lives
------------------
     ethr =  1.61E-08,  avg # of iterations =  4.0

     negative rho (up, down):  3.666E-01 0.000E+00

     total cpu time spent up to now is        6.5 secs

     total energy              =      -2.23327730 Ry
     estimated scf accuracy    <       0.00000204 Ry

     iteration # 28     ecut=    10.00 Ry     beta= 0.70
     Davidson diagonalization with overlap

---- Real-time Memory Report at c_bands before calling an iterative solver
           131 MiB given to the printing process from OS
             0 MiB allocation reported by mallinfo(arena+hblkhd)
          1167 MiB available memory on the node where the printing process lives
------------------
     ethr =  1.61E-08,  avg # of iterations =  4.0

     negative rho (up, down):  3.664E-01 0.000E+00

     total cpu time spent up to now is        6.7 secs

     total energy              =      -2.23323544 Ry
     estimated scf accuracy    <       0.00000072 Ry

     iteration # 29     ecut=    10.00 Ry     beta= 0.70
     Davidson diagonalization with overlap

---- Real-time Memory Report at c_bands before calling an iterative solver
           131 MiB given to the printing process from OS
             0 MiB allocation reported by mallinfo(arena+hblkhd)
          1167 MiB available memory on the node where the printing process lives
------------------
     ethr =  1.61E-08,  avg # of iterations =  4.0

     negative rho (up, down):  3.665E-01 0.000E+00

     total cpu time spent up to now is        7.0 secs

     total energy              =      -2.23325755 Ry
     estimated scf accuracy    <       0.00000044 Ry

     iteration # 30     ecut=    10.00 Ry     beta= 0.70
     Davidson diagonalization with overlap

---- Real-time Memory Report at c_bands before calling an iterative solver
           131 MiB given to the printing process from OS
             0 MiB allocation reported by mallinfo(arena+hblkhd)
          1167 MiB available memory on the node where the printing process lives
------------------
     ethr =  1.61E-08,  avg # of iterations =  4.0

     negative rho (up, down):  3.666E-01 0.000E+00

     total cpu time spent up to now is        7.2 secs

     total energy              =      -2.23317847 Ry
     estimated scf accuracy    <       0.00000520 Ry

     iteration # 31     ecut=    10.00 Ry     beta= 0.70
     Davidson diagonalization with overlap

---- Real-time Memory Report at c_bands before calling an iterative solver
           131 MiB given to the printing process from OS
             0 MiB allocation reported by mallinfo(arena+hblkhd)
          1167 MiB available memory on the node where the printing process lives
------------------
     ethr =  1.61E-08,  avg # of iterations =  5.0

     negative rho (up, down):  3.665E-01 0.000E+00

     total cpu time spent up to now is        7.4 secs

     total energy              =      -2.23314460 Ry
     estimated scf accuracy    <       0.00000490 Ry

     iteration # 32     ecut=    10.00 Ry     beta= 0.70
     Davidson diagonalization with overlap

---- Real-time Memory Report at c_bands before calling an iterative solver
           131 MiB given to the printing process from OS
             0 MiB allocation reported by mallinfo(arena+hblkhd)
          1167 MiB available memory on the node where the printing process lives
------------------
     ethr =  1.61E-08,  avg # of iterations =  5.0

     negative rho (up, down):  3.665E-01 0.000E+00

     total cpu time spent up to now is        7.7 secs

     total energy              =      -2.23335121 Ry
     estimated scf accuracy    <       0.00000405 Ry

     iteration # 33     ecut=    10.00 Ry     beta= 0.70
     Davidson diagonalization with overlap

---- Real-time Memory Report at c_bands before calling an iterative solver
           131 MiB given to the printing process from OS
             0 MiB allocation reported by mallinfo(arena+hblkhd)
          1167 MiB available memory on the node where the printing process lives
------------------
     ethr =  1.61E-08,  avg # of iterations =  3.0

     negative rho (up, down):  3.664E-01 0.000E+00

     total cpu time spent up to now is        7.9 secs

     total energy              =      -2.23336845 Ry
     estimated scf accuracy    <       0.00000552 Ry

     iteration # 34     ecut=    10.00 Ry     beta= 0.70
     Davidson diagonalization with overlap

---- Real-time Memory Report at c_bands before calling an iterative solver
           131 MiB given to the printing process from OS
             0 MiB allocation reported by mallinfo(arena+hblkhd)
          1167 MiB available memory on the node where the printing process lives
------------------
     ethr =  1.61E-08,  avg # of iterations =  3.0

     negative rho (up, down):  3.663E-01 0.000E+00

     total cpu time spent up to now is        8.1 secs

     total energy              =      -2.23333988 Ry
     estimated scf accuracy    <       0.00000450 Ry

     iteration # 35     ecut=    10.00 Ry     beta= 0.70
     Davidson diagonalization with overlap

---- Real-time Memory Report at c_bands before calling an iterative solver
           131 MiB given to the printing process from OS
             0 MiB allocation reported by mallinfo(arena+hblkhd)
          1167 MiB available memory on the node where the printing process lives
------------------
     ethr =  1.61E-08,  avg # of iterations =  4.0

     negative rho (up, down):  3.664E-01 0.000E+00

     total cpu time spent up to now is        8.4 secs

     total energy              =      -2.23327007 Ry
     estimated scf accuracy    <       0.00000079 Ry

     iteration # 36     ecut=    10.00 Ry     beta= 0.70
     Davidson diagonalization with overlap

---- Real-time Memory Report at c_bands before calling an iterative solver
           131 MiB given to the printing process from OS
             0 MiB allocation reported by mallinfo(arena+hblkhd)
          1167 MiB available memory on the node where the printing process lives
------------------
     ethr =  1.61E-08,  avg # of iterations =  4.0

     negative rho (up, down):  3.664E-01 0.000E+00

     total cpu time spent up to now is        8.6 secs

     total energy              =      -2.23320186 Ry
     estimated scf accuracy    <       0.00000088 Ry

     iteration # 37     ecut=    10.00 Ry     beta= 0.70
     Davidson diagonalization with overlap

---- Real-time Memory Report at c_bands before calling an iterative solver
           131 MiB given to the printing process from OS
             0 MiB allocation reported by mallinfo(arena+hblkhd)
          1167 MiB available memory on the node where the printing process lives
------------------
     ethr =  1.61E-08,  avg # of iterations =  5.0

     negative rho (up, down):  3.664E-01 0.000E+00

     total cpu time spent up to now is        8.9 secs

     total energy              =      -2.23335037 Ry
     estimated scf accuracy    <       0.00000453 Ry

     iteration # 38     ecut=    10.00 Ry     beta= 0.70
     Davidson diagonalization with overlap

---- Real-time Memory Report at c_bands before calling an iterative solver
           131 MiB given to the printing process from OS
             0 MiB allocation reported by mallinfo(arena+hblkhd)
          1167 MiB available memory on the node where the printing process lives
------------------
     ethr =  1.61E-08,  avg # of iterations =  1.0

     negative rho (up, down):  3.664E-01 0.000E+00

     total cpu time spent up to now is        9.1 secs

     total energy              =      -2.23335342 Ry
     estimated scf accuracy    <       0.00000444 Ry

     iteration # 39     ecut=    10.00 Ry     beta= 0.70
     Davidson diagonalization with overlap

---- Real-time Memory Report at c_bands before calling an iterative solver
           131 MiB given to the printing process from OS
             0 MiB allocation reported by mallinfo(arena+hblkhd)
          1167 MiB available memory on the node where the printing process lives
------------------
     ethr =  1.61E-08,  avg # of iterations =  2.0

     negative rho (up, down):  3.664E-01 0.000E+00

     total cpu time spent up to now is        9.3 secs

     total energy              =      -2.23335310 Ry
     estimated scf accuracy    <       0.00000456 Ry

     iteration # 40     ecut=    10.00 Ry     beta= 0.70
     Davidson diagonalization with overlap

---- Real-time Memory Report at c_bands before calling an iterative solver
           131 MiB given to the printing process from OS
             0 MiB allocation reported by mallinfo(arena+hblkhd)
          1167 MiB available memory on the node where the printing process lives
------------------
     ethr =  1.61E-08,  avg # of iterations =  1.0

     negative rho (up, down):  3.662E-01 0.000E+00

     total cpu time spent up to now is        9.5 secs

     total energy              =      -2.23359949 Ry
     estimated scf accuracy    <       0.00000458 Ry

     iteration # 41     ecut=    10.00 Ry     beta= 0.70
     Davidson diagonalization with overlap

---- Real-time Memory Report at c_bands before calling an iterative solver
           131 MiB given to the printing process from OS
             0 MiB allocation reported by mallinfo(arena+hblkhd)
          1167 MiB available memory on the node where the printing process lives
------------------
     ethr =  1.61E-08,  avg # of iterations =  3.0

     negative rho (up, down):  3.661E-01 0.000E+00

     total cpu time spent up to now is        9.7 secs

     total energy              =      -2.23362604 Ry
     estimated scf accuracy    <       0.00001386 Ry

     iteration # 42     ecut=    10.00 Ry     beta= 0.70
     Davidson diagonalization with overlap

---- Real-time Memory Report at c_bands before calling an iterative solver
           131 MiB given to the printing process from OS
             0 MiB allocation reported by mallinfo(arena+hblkhd)
          1167 MiB available memory on the node where the printing process lives
------------------
     ethr =  1.61E-08,  avg # of iterations =  3.0

     negative rho (up, down):  3.660E-01 0.000E+00

     total cpu time spent up to now is        9.9 secs

     total energy              =      -2.23362143 Ry
     estimated scf accuracy    <       0.00001372 Ry

     iteration # 43     ecut=    10.00 Ry     beta= 0.70
     Davidson diagonalization with overlap

---- Real-time Memory Report at c_bands before calling an iterative solver
           131 MiB given to the printing process from OS
             0 MiB allocation reported by mallinfo(arena+hblkhd)
          1167 MiB available memory on the node where the printing process lives
------------------
     ethr =  1.61E-08,  avg # of iterations =  3.0

     negative rho (up, down):  3.661E-01 0.000E+00

     total cpu time spent up to now is       10.2 secs

     total energy              =      -2.23348132 Ry
     estimated scf accuracy    <       0.00000816 Ry

     iteration # 44     ecut=    10.00 Ry     beta= 0.70
     Davidson diagonalization with overlap

---- Real-time Memory Report at c_bands before calling an iterative solver
           131 MiB given to the printing process from OS
             0 MiB allocation reported by mallinfo(arena+hblkhd)
          1167 MiB available memory on the node where the printing process lives
------------------
     ethr =  1.61E-08,  avg # of iterations =  4.0

     negative rho (up, down):  3.660E-01 0.000E+00

     total cpu time spent up to now is       10.4 secs

     total energy              =      -2.23360203 Ry
     estimated scf accuracy    <       0.00000079 Ry

     iteration # 45     ecut=    10.00 Ry     beta= 0.70
     Davidson diagonalization with overlap

---- Real-time Memory Report at c_bands before calling an iterative solver
           131 MiB given to the printing process from OS
             0 MiB allocation reported by mallinfo(arena+hblkhd)
          1167 MiB available memory on the node where the printing process lives
------------------
     ethr =  1.61E-08,  avg # of iterations =  4.0

     negative rho (up, down):  3.660E-01 0.000E+00

     total cpu time spent up to now is       10.6 secs

     total energy              =      -2.23363454 Ry
     estimated scf accuracy    <       0.00000930 Ry

     iteration # 46     ecut=    10.00 Ry     beta= 0.70
     Davidson diagonalization with overlap

---- Real-time Memory Report at c_bands before calling an iterative solver
           131 MiB given to the printing process from OS
             0 MiB allocation reported by mallinfo(arena+hblkhd)
          1167 MiB available memory on the node where the printing process lives
------------------
     ethr =  1.61E-08,  avg # of iterations =  3.0

     negative rho (up, down):  3.660E-01 0.000E+00

     total cpu time spent up to now is       10.9 secs

     total energy              =      -2.23364794 Ry
     estimated scf accuracy    <       0.00000984 Ry

     iteration # 47     ecut=    10.00 Ry     beta= 0.70
     Davidson diagonalization with overlap

---- Real-time Memory Report at c_bands before calling an iterative solver
           131 MiB given to the printing process from OS
             0 MiB allocation reported by mallinfo(arena+hblkhd)
          1167 MiB available memory on the node where the printing process lives
------------------
     ethr =  1.61E-08,  avg # of iterations =  3.0

     negative rho (up, down):  3.660E-01 0.000E+00

     total cpu time spent up to now is       11.1 secs

     total energy              =      -2.23364910 Ry
     estimated scf accuracy    <       0.00000958 Ry

     iteration # 48     ecut=    10.00 Ry     beta= 0.70
     Davidson diagonalization with overlap

---- Real-time Memory Report at c_bands before calling an iterative solver
           131 MiB given to the printing process from OS
             0 MiB allocation reported by mallinfo(arena+hblkhd)
          1167 MiB available memory on the node where the printing process lives
------------------
     ethr =  1.61E-08,  avg # of iterations =  2.0

     negative rho (up, down):  3.660E-01 0.000E+00

     total cpu time spent up to now is       11.3 secs

     total energy              =      -2.23360694 Ry
     estimated scf accuracy    <       0.00000949 Ry

     iteration # 49     ecut=    10.00 Ry     beta= 0.70
     Davidson diagonalization with overlap

---- Real-time Memory Report at c_bands before calling an iterative solver
           131 MiB given to the printing process from OS
             0 MiB allocation reported by mallinfo(arena+hblkhd)
          1167 MiB available memory on the node where the printing process lives
------------------
     ethr =  1.61E-08,  avg # of iterations =  2.0

     negative rho (up, down):  3.660E-01 0.000E+00

     total cpu time spent up to now is       11.5 secs

     total energy              =      -2.23360862 Ry
     estimated scf accuracy    <       0.00000750 Ry

     iteration # 50     ecut=    10.00 Ry     beta= 0.70
     Davidson diagonalization with overlap

---- Real-time Memory Report at c_bands before calling an iterative solver
           131 MiB given to the printing process from OS
             0 MiB allocation reported by mallinfo(arena+hblkhd)
          1167 MiB available memory on the node where the printing process lives
------------------
     ethr =  1.61E-08,  avg # of iterations =  2.0

     negative rho (up, down):  3.662E-01 0.000E+00

     total cpu time spent up to now is       11.7 secs

     total energy              =      -2.23347128 Ry
     estimated scf accuracy    <       0.00000793 Ry

     iteration # 51     ecut=    10.00 Ry     beta= 0.70
     Davidson diagonalization with overlap

---- Real-time Memory Report at c_bands before calling an iterative solver
           131 MiB given to the printing process from OS
             0 MiB allocation reported by mallinfo(arena+hblkhd)
          1167 MiB available memory on the node where the printing process lives
------------------
     ethr =  1.61E-08,  avg # of iterations =  3.0

     negative rho (up, down):  3.663E-01 0.000E+00

     total cpu time spent up to now is       12.0 secs

     total energy              =      -2.23354012 Ry
     estimated scf accuracy    <       0.00000220 Ry

     iteration # 52     ecut=    10.00 Ry     beta= 0.70
     Davidson diagonalization with overlap

---- Real-time Memory Report at c_bands before calling an iterative solver
           131 MiB given to the printing process from OS
             0 MiB allocation reported by mallinfo(arena+hblkhd)
          1167 MiB available memory on the node where the printing process lives
------------------
     ethr =  1.61E-08,  avg # of iterations =  4.0

     negative rho (up, down):  3.666E-01 0.000E+00

     total cpu time spent up to now is       12.2 secs

     total energy              =      -2.23336963 Ry
     estimated scf accuracy    <       0.00000897 Ry

     iteration # 53     ecut=    10.00 Ry     beta= 0.70
     Davidson diagonalization with overlap

---- Real-time Memory Report at c_bands before calling an iterative solver
           131 MiB given to the printing process from OS
             0 MiB allocation reported by mallinfo(arena+hblkhd)
          1167 MiB available memory on the node where the printing process lives
------------------
     ethr =  1.61E-08,  avg # of iterations =  4.0

     negative rho (up, down):  3.667E-01 0.000E+00

     total cpu time spent up to now is       12.4 secs

     total energy              =      -2.23320394 Ry
     estimated scf accuracy    <       0.00000076 Ry

     iteration # 54     ecut=    10.00 Ry     beta= 0.70
     Davidson diagonalization with overlap

---- Real-time Memory Report at c_bands before calling an iterative solver
           131 MiB given to the printing process from OS
             0 MiB allocation reported by mallinfo(arena+hblkhd)
          1167 MiB available memory on the node where the printing process lives
------------------
     ethr =  1.61E-08,  avg # of iterations =  6.0

     negative rho (up, down):  3.667E-01 0.000E+00

     total cpu time spent up to now is       12.7 secs

     total energy              =      -2.23304541 Ry
     estimated scf accuracy    <       0.00005824 Ry

     iteration # 55     ecut=    10.00 Ry     beta= 0.70
     Davidson diagonalization with overlap

---- Real-time Memory Report at c_bands before calling an iterative solver
           131 MiB given to the printing process from OS
             0 MiB allocation reported by mallinfo(arena+hblkhd)
          1167 MiB available memory on the node where the printing process lives
------------------
     ethr =  1.61E-08,  avg # of iterations =  5.0

     negative rho (up, down):  3.666E-01 0.000E+00

     total cpu time spent up to now is       13.0 secs

     total energy              =      -2.23330511 Ry
     estimated scf accuracy    <       0.00000652 Ry

     iteration # 56     ecut=    10.00 Ry     beta= 0.70
     Davidson diagonalization with overlap

---- Real-time Memory Report at c_bands before calling an iterative solver
           131 MiB given to the printing process from OS
             0 MiB allocation reported by mallinfo(arena+hblkhd)
          1167 MiB available memory on the node where the printing process lives
------------------
     ethr =  1.61E-08,  avg # of iterations =  4.0

     negative rho (up, down):  3.662E-01 0.000E+00

     total cpu time spent up to now is       13.2 secs

     total energy              =      -2.23349157 Ry
     estimated scf accuracy    <       0.00000069 Ry

     iteration # 57     ecut=    10.00 Ry     beta= 0.70
     Davidson diagonalization with overlap

---- Real-time Memory Report at c_bands before calling an iterative solver
           131 MiB given to the printing process from OS
             0 MiB allocation reported by mallinfo(arena+hblkhd)
          1167 MiB available memory on the node where the printing process lives
------------------
     ethr =  1.61E-08,  avg # of iterations =  4.0

     negative rho (up, down):  3.666E-01 0.000E+00

     total cpu time spent up to now is       13.4 secs

     total energy              =      -2.23308739 Ry
     estimated scf accuracy    <       0.00000820 Ry

     iteration # 58     ecut=    10.00 Ry     beta= 0.70
     Davidson diagonalization with overlap

---- Real-time Memory Report at c_bands before calling an iterative solver
           131 MiB given to the printing process from OS
             0 MiB allocation reported by mallinfo(arena+hblkhd)
          1167 MiB available memory on the node where the printing process lives
------------------
     ethr =  1.61E-08,  avg # of iterations =  5.0

     negative rho (up, down):  3.663E-01 0.000E+00

     total cpu time spent up to now is       13.7 secs

     total energy              =      -2.23332630 Ry
     estimated scf accuracy    <       0.00000512 Ry

     iteration # 59     ecut=    10.00 Ry     beta= 0.70
     Davidson diagonalization with overlap

---- Real-time Memory Report at c_bands before calling an iterative solver
           131 MiB given to the printing process from OS
             0 MiB allocation reported by mallinfo(arena+hblkhd)
          1167 MiB available memory on the node where the printing process lives
------------------
     ethr =  1.61E-08,  avg # of iterations =  5.0

     negative rho (up, down):  3.663E-01 0.000E+00

     total cpu time spent up to now is       13.9 secs

     total energy              =      -2.23344357 Ry
     estimated scf accuracy    <       0.00000365 Ry

     iteration # 60     ecut=    10.00 Ry     beta= 0.70
     Davidson diagonalization with overlap

---- Real-time Memory Report at c_bands before calling an iterative solver
           131 MiB given to the printing process from OS
             0 MiB allocation reported by mallinfo(arena+hblkhd)
          1167 MiB available memory on the node where the printing process lives
------------------
     ethr =  1.61E-08,  avg # of iterations =  4.0

     negative rho (up, down):  3.663E-01 0.000E+00

     total cpu time spent up to now is       14.1 secs

     total energy              =      -2.23344055 Ry
     estimated scf accuracy    <       0.00000059 Ry

     iteration # 61     ecut=    10.00 Ry     beta= 0.70
     Davidson diagonalization with overlap

---- Real-time Memory Report at c_bands before calling an iterative solver
           131 MiB given to the printing process from OS
             0 MiB allocation reported by mallinfo(arena+hblkhd)
          1167 MiB available memory on the node where the printing process lives
------------------
     ethr =  1.61E-08,  avg # of iterations =  3.0

     negative rho (up, down):  3.662E-01 0.000E+00

     total cpu time spent up to now is       14.4 secs

     total energy              =      -2.23345589 Ry
     estimated scf accuracy    <       0.00000006 Ry

     iteration # 62     ecut=    10.00 Ry     beta= 0.70
     Davidson diagonalization with overlap

---- Real-time Memory Report at c_bands before calling an iterative solver
           131 MiB given to the printing process from OS
             0 MiB allocation reported by mallinfo(arena+hblkhd)
          1167 MiB available memory on the node where the printing process lives
------------------
     ethr =  3.12E-09,  avg # of iterations =  5.0

     negative rho (up, down):  3.661E-01 0.000E+00

     total cpu time spent up to now is       14.6 secs

     total energy              =      -2.23361113 Ry
     estimated scf accuracy    <       0.00000737 Ry

     iteration # 63     ecut=    10.00 Ry     beta= 0.70
     Davidson diagonalization with overlap

---- Real-time Memory Report at c_bands before calling an iterative solver
           131 MiB given to the printing process from OS
             0 MiB allocation reported by mallinfo(arena+hblkhd)
          1167 MiB available memory on the node where the printing process lives
------------------
     ethr =  3.12E-09,  avg # of iterations =  3.0

     negative rho (up, down):  3.662E-01 0.000E+00

     total cpu time spent up to now is       14.9 secs

     total energy              =      -2.23338385 Ry
     estimated scf accuracy    <       0.00000964 Ry

     iteration # 64     ecut=    10.00 Ry     beta= 0.70
     Davidson diagonalization with overlap

---- Real-time Memory Report at c_bands before calling an iterative solver
           131 MiB given to the printing process from OS
             0 MiB allocation reported by mallinfo(arena+hblkhd)
          1167 MiB available memory on the node where the printing process lives
------------------
     ethr =  3.12E-09,  avg # of iterations =  5.0

     negative rho (up, down):  3.660E-01 0.000E+00

     total cpu time spent up to now is       15.1 secs

     total energy              =      -2.23357905 Ry
     estimated scf accuracy    <       0.00000020 Ry

     iteration # 65     ecut=    10.00 Ry     beta= 0.70
     Davidson diagonalization with overlap

---- Real-time Memory Report at c_bands before calling an iterative solver
           131 MiB given to the printing process from OS
             0 MiB allocation reported by mallinfo(arena+hblkhd)
          1167 MiB available memory on the node where the printing process lives
------------------
     ethr =  3.12E-09,  avg # of iterations =  5.0

     negative rho (up, down):  3.662E-01 0.000E+00

     total cpu time spent up to now is       15.3 secs

     total energy              =      -2.23345684 Ry
     estimated scf accuracy    <       0.00000977 Ry

     iteration # 66     ecut=    10.00 Ry     beta= 0.70
     Davidson diagonalization with overlap

---- Real-time Memory Report at c_bands before calling an iterative solver
           131 MiB given to the printing process from OS
             0 MiB allocation reported by mallinfo(arena+hblkhd)
          1167 MiB available memory on the node where the printing process lives
------------------
     ethr =  3.12E-09,  avg # of iterations =  4.0

     negative rho (up, down):  3.662E-01 0.000E+00

     total cpu time spent up to now is       15.6 secs

     total energy              =      -2.23350441 Ry
     estimated scf accuracy    <       0.00000160 Ry

     iteration # 67     ecut=    10.00 Ry     beta= 0.70
     Davidson diagonalization with overlap

---- Real-time Memory Report at c_bands before calling an iterative solver
           131 MiB given to the printing process from OS
             0 MiB allocation reported by mallinfo(arena+hblkhd)
          1167 MiB available memory on the node where the printing process lives
------------------
     ethr =  3.12E-09,  avg # of iterations =  3.0

     negative rho (up, down):  3.661E-01 0.000E+00

     total cpu time spent up to now is       15.8 secs

     total energy              =      -2.23356162 Ry
     estimated scf accuracy    <       0.00000240 Ry

     iteration # 68     ecut=    10.00 Ry     beta= 0.70
     Davidson diagonalization with overlap

---- Real-time Memory Report at c_bands before calling an iterative solver
           131 MiB given to the printing process from OS
             0 MiB allocation reported by mallinfo(arena+hblkhd)
          1167 MiB available memory on the node where the printing process lives
------------------
     ethr =  3.12E-09,  avg # of iterations =  4.0

     negative rho (up, down):  3.662E-01 0.000E+00

     total cpu time spent up to now is       16.0 secs

     total energy              =      -2.23353056 Ry
     estimated scf accuracy    <       0.00000512 Ry

     iteration # 69     ecut=    10.00 Ry     beta= 0.70
     Davidson diagonalization with overlap

---- Real-time Memory Report at c_bands before calling an iterative solver
           131 MiB given to the printing process from OS
             0 MiB allocation reported by mallinfo(arena+hblkhd)
          1167 MiB available memory on the node where the printing process lives
------------------
     ethr =  3.12E-09,  avg # of iterations =  3.0

     negative rho (up, down):  3.662E-01 0.000E+00

     total cpu time spent up to now is       16.2 secs

     total energy              =      -2.23350294 Ry
     estimated scf accuracy    <       0.00000460 Ry

     iteration # 70     ecut=    10.00 Ry     beta= 0.70
     Davidson diagonalization with overlap

---- Real-time Memory Report at c_bands before calling an iterative solver
           131 MiB given to the printing process from OS
             0 MiB allocation reported by mallinfo(arena+hblkhd)
          1167 MiB available memory on the node where the printing process lives
------------------
     ethr =  3.12E-09,  avg # of iterations =  4.0

     negative rho (up, down):  3.661E-01 0.000E+00

     total cpu time spent up to now is       16.5 secs

     total energy              =      -2.23353347 Ry
     estimated scf accuracy    <       0.00000208 Ry

     iteration # 71     ecut=    10.00 Ry     beta= 0.70
     Davidson diagonalization with overlap

---- Real-time Memory Report at c_bands before calling an iterative solver
           131 MiB given to the printing process from OS
             0 MiB allocation reported by mallinfo(arena+hblkhd)
          1167 MiB available memory on the node where the printing process lives
------------------
     ethr =  3.12E-09,  avg # of iterations =  3.0

     negative rho (up, down):  3.662E-01 0.000E+00

     total cpu time spent up to now is       16.7 secs

     total energy              =      -2.23347156 Ry
     estimated scf accuracy    <       0.00000216 Ry

     iteration # 72     ecut=    10.00 Ry     beta= 0.70
     Davidson diagonalization with overlap

---- Real-time Memory Report at c_bands before calling an iterative solver
           131 MiB given to the printing process from OS
             0 MiB allocation reported by mallinfo(arena+hblkhd)
          1167 MiB available memory on the node where the printing process lives
------------------
     ethr =  3.12E-09,  avg # of iterations =  3.0

     negative rho (up, down):  3.659E-01 0.000E+00

     total cpu time spent up to now is       16.9 secs

     total energy              =      -2.23363089 Ry
     estimated scf accuracy    <       0.00000350 Ry

     iteration # 73     ecut=    10.00 Ry     beta= 0.70
     Davidson diagonalization with overlap

---- Real-time Memory Report at c_bands before calling an iterative solver
           131 MiB given to the printing process from OS
             0 MiB allocation reported by mallinfo(arena+hblkhd)
          1167 MiB available memory on the node where the printing process lives
------------------
     ethr =  3.12E-09,  avg # of iterations =  4.0

     negative rho (up, down):  3.657E-01 0.000E+00

     total cpu time spent up to now is       17.2 secs

     total energy              =      -2.23369477 Ry
     estimated scf accuracy    <       0.00000573 Ry

     iteration # 74     ecut=    10.00 Ry     beta= 0.70
     Davidson diagonalization with overlap

---- Real-time Memory Report at c_bands before calling an iterative solver
           131 MiB given to the printing process from OS
             0 MiB allocation reported by mallinfo(arena+hblkhd)
          1167 MiB available memory on the node where the printing process lives
------------------
     ethr =  3.12E-09,  avg # of iterations =  4.0

     negative rho (up, down):  3.656E-01 0.000E+00

     total cpu time spent up to now is       17.4 secs

     total energy              =      -2.23371969 Ry
     estimated scf accuracy    <       0.00000879 Ry

     iteration # 75     ecut=    10.00 Ry     beta= 0.70
     Davidson diagonalization with overlap

---- Real-time Memory Report at c_bands before calling an iterative solver
           131 MiB given to the printing process from OS
             0 MiB allocation reported by mallinfo(arena+hblkhd)
          1167 MiB available memory on the node where the printing process lives
------------------
     ethr =  3.12E-09,  avg # of iterations =  3.0

     negative rho (up, down):  3.660E-01 0.000E+00

     total cpu time spent up to now is       17.6 secs

     total energy              =      -2.23360050 Ry
     estimated scf accuracy    <       0.00001010 Ry

     iteration # 76     ecut=    10.00 Ry     beta= 0.70
     Davidson diagonalization with overlap

---- Real-time Memory Report at c_bands before calling an iterative solver
           131 MiB given to the printing process from OS
             0 MiB allocation reported by mallinfo(arena+hblkhd)
          1167 MiB available memory on the node where the printing process lives
------------------
     ethr =  3.12E-09,  avg # of iterations =  4.0

     negative rho (up, down):  3.661E-01 0.000E+00

     total cpu time spent up to now is       17.9 secs

     total energy              =      -2.23354969 Ry
     estimated scf accuracy    <       0.00000426 Ry

     iteration # 77     ecut=    10.00 Ry     beta= 0.70
     Davidson diagonalization with overlap

---- Real-time Memory Report at c_bands before calling an iterative solver
           131 MiB given to the printing process from OS
             0 MiB allocation reported by mallinfo(arena+hblkhd)
          1167 MiB available memory on the node where the printing process lives
------------------
     ethr =  3.12E-09,  avg # of iterations =  3.0

     negative rho (up, down):  3.663E-01 0.000E+00

     total cpu time spent up to now is       18.1 secs

     total energy              =      -2.23346739 Ry
     estimated scf accuracy    <       0.00000267 Ry

     iteration # 78     ecut=    10.00 Ry     beta= 0.70
     Davidson diagonalization with overlap

---- Real-time Memory Report at c_bands before calling an iterative solver
           131 MiB given to the printing process from OS
             0 MiB allocation reported by mallinfo(arena+hblkhd)
          1167 MiB available memory on the node where the printing process lives
------------------
     ethr =  3.12E-09,  avg # of iterations =  4.0

     negative rho (up, down):  3.662E-01 0.000E+00

     total cpu time spent up to now is       18.3 secs

     total energy              =      -2.23351101 Ry
     estimated scf accuracy    <       0.00000019 Ry

     iteration # 79     ecut=    10.00 Ry     beta= 0.70
     Davidson diagonalization with overlap

---- Real-time Memory Report at c_bands before calling an iterative solver
           131 MiB given to the printing process from OS
             0 MiB allocation reported by mallinfo(arena+hblkhd)
          1167 MiB available memory on the node where the printing process lives
------------------
     ethr =  3.12E-09,  avg # of iterations =  4.0

     negative rho (up, down):  3.662E-01 0.000E+00

     total cpu time spent up to now is       18.5 secs

     total energy              =      -2.23352805 Ry
     estimated scf accuracy    <       0.00000163 Ry

     iteration # 80     ecut=    10.00 Ry     beta= 0.70
     Davidson diagonalization with overlap

---- Real-time Memory Report at c_bands before calling an iterative solver
           131 MiB given to the printing process from OS
             0 MiB allocation reported by mallinfo(arena+hblkhd)
          1167 MiB available memory on the node where the printing process lives
------------------
     ethr =  3.12E-09,  avg # of iterations =  3.0

     negative rho (up, down):  3.662E-01 0.000E+00

     total cpu time spent up to now is       18.8 secs

     total energy              =      -2.23350888 Ry
     estimated scf accuracy    <       0.00000261 Ry

     iteration # 81     ecut=    10.00 Ry     beta= 0.70
     Davidson diagonalization with overlap

---- Real-time Memory Report at c_bands before calling an iterative solver
           131 MiB given to the printing process from OS
             0 MiB allocation reported by mallinfo(arena+hblkhd)
          1167 MiB available memory on the node where the printing process lives
------------------
     ethr =  3.12E-09,  avg # of iterations =  4.0

     negative rho (up, down):  3.661E-01 0.000E+00

     total cpu time spent up to now is       19.0 secs

     total energy              =      -2.23352951 Ry
     estimated scf accuracy    <       0.00000163 Ry

     iteration # 82     ecut=    10.00 Ry     beta= 0.70
     Davidson diagonalization with overlap

---- Real-time Memory Report at c_bands before calling an iterative solver
           131 MiB given to the printing process from OS
             0 MiB allocation reported by mallinfo(arena+hblkhd)
          1167 MiB available memory on the node where the printing process lives
------------------
     ethr =  3.12E-09,  avg # of iterations =  4.0

     negative rho (up, down):  3.660E-01 0.000E+00

     total cpu time spent up to now is       19.3 secs

     total energy              =      -2.23358180 Ry
     estimated scf accuracy    <       0.00000152 Ry

     iteration # 83     ecut=    10.00 Ry     beta= 0.70
     Davidson diagonalization with overlap

---- Real-time Memory Report at c_bands before calling an iterative solver
           131 MiB given to the printing process from OS
             0 MiB allocation reported by mallinfo(arena+hblkhd)
          1166 MiB available memory on the node where the printing process lives
------------------
     ethr =  3.12E-09,  avg # of iterations =  4.0

     negative rho (up, down):  3.658E-01 0.000E+00

     total cpu time spent up to now is       19.5 secs

     total energy              =      -2.23362352 Ry
     estimated scf accuracy    <       0.00000381 Ry

     iteration # 84     ecut=    10.00 Ry     beta= 0.70
     Davidson diagonalization with overlap

---- Real-time Memory Report at c_bands before calling an iterative solver
           131 MiB given to the printing process from OS
             0 MiB allocation reported by mallinfo(arena+hblkhd)
          1166 MiB available memory on the node where the printing process lives
------------------
     ethr =  3.12E-09,  avg # of iterations =  3.0

     negative rho (up, down):  3.661E-01 0.000E+00

     total cpu time spent up to now is       19.7 secs

     total energy              =      -2.23351717 Ry
     estimated scf accuracy    <       0.00000482 Ry

     iteration # 85     ecut=    10.00 Ry     beta= 0.70
     Davidson diagonalization with overlap

---- Real-time Memory Report at c_bands before calling an iterative solver
           131 MiB given to the printing process from OS
             0 MiB allocation reported by mallinfo(arena+hblkhd)
          1166 MiB available memory on the node where the printing process lives
------------------
     ethr =  3.12E-09,  avg # of iterations =  4.0

     negative rho (up, down):  3.662E-01 0.000E+00

     total cpu time spent up to now is       19.9 secs

     total energy              =      -2.23348805 Ry
     estimated scf accuracy    <       0.00000132 Ry

     iteration # 86     ecut=    10.00 Ry     beta= 0.70
     Davidson diagonalization with overlap

---- Real-time Memory Report at c_bands before calling an iterative solver
           131 MiB given to the printing process from OS
             0 MiB allocation reported by mallinfo(arena+hblkhd)
          1166 MiB available memory on the node where the printing process lives
------------------
     ethr =  3.12E-09,  avg # of iterations =  3.0

     negative rho (up, down):  3.662E-01 0.000E+00

     total cpu time spent up to now is       20.2 secs

     total energy              =      -2.23349456 Ry
     estimated scf accuracy    <       0.00000123 Ry

     iteration # 87     ecut=    10.00 Ry     beta= 0.70
     Davidson diagonalization with overlap

---- Real-time Memory Report at c_bands before calling an iterative solver
           131 MiB given to the printing process from OS
             0 MiB allocation reported by mallinfo(arena+hblkhd)
          1166 MiB available memory on the node where the printing process lives
------------------
     ethr =  3.12E-09,  avg # of iterations =  4.0

     negative rho (up, down):  3.661E-01 0.000E+00

     total cpu time spent up to now is       20.4 secs

     total energy              =      -2.23351938 Ry
     estimated scf accuracy    <       0.00000068 Ry

     iteration # 88     ecut=    10.00 Ry     beta= 0.70
     Davidson diagonalization with overlap

---- Real-time Memory Report at c_bands before calling an iterative solver
           131 MiB given to the printing process from OS
             0 MiB allocation reported by mallinfo(arena+hblkhd)
          1166 MiB available memory on the node where the printing process lives
------------------
     ethr =  3.12E-09,  avg # of iterations =  4.0

     negative rho (up, down):  3.663E-01 0.000E+00

     total cpu time spent up to now is       20.6 secs

     total energy              =      -2.23348056 Ry
     estimated scf accuracy    <       0.00000022 Ry

     iteration # 89     ecut=    10.00 Ry     beta= 0.70
     Davidson diagonalization with overlap

---- Real-time Memory Report at c_bands before calling an iterative solver
           131 MiB given to the printing process from OS
             0 MiB allocation reported by mallinfo(arena+hblkhd)
          1166 MiB available memory on the node where the printing process lives
------------------
     ethr =  3.12E-09,  avg # of iterations =  3.0

     negative rho (up, down):  3.667E-01 0.000E+00

     total cpu time spent up to now is       20.8 secs

     total energy              =      -2.23319934 Ry
     estimated scf accuracy    <       0.00000015 Ry

     iteration # 90     ecut=    10.00 Ry     beta= 0.70
     Davidson diagonalization with overlap

---- Real-time Memory Report at c_bands before calling an iterative solver
           131 MiB given to the printing process from OS
             0 MiB allocation reported by mallinfo(arena+hblkhd)
          1166 MiB available memory on the node where the printing process lives
------------------
     ethr =  3.12E-09,  avg # of iterations =  6.0

     negative rho (up, down):  3.658E-01 0.000E+00

     total cpu time spent up to now is       21.1 secs

     total energy              =      -2.23315876 Ry
     estimated scf accuracy    <       0.00005460 Ry

     iteration # 91     ecut=    10.00 Ry     beta= 0.70
     Davidson diagonalization with overlap

---- Real-time Memory Report at c_bands before calling an iterative solver
           131 MiB given to the printing process from OS
             0 MiB allocation reported by mallinfo(arena+hblkhd)
          1166 MiB available memory on the node where the printing process lives
------------------
     ethr =  3.12E-09,  avg # of iterations =  6.0

     negative rho (up, down):  3.657E-01 0.000E+00

     total cpu time spent up to now is       21.4 secs

     total energy              =      -2.23367257 Ry
     estimated scf accuracy    <       0.00000115 Ry

     iteration # 92     ecut=    10.00 Ry     beta= 0.70
     Davidson diagonalization with overlap

---- Real-time Memory Report at c_bands before calling an iterative solver
           131 MiB given to the printing process from OS
             0 MiB allocation reported by mallinfo(arena+hblkhd)
          1166 MiB available memory on the node where the printing process lives
------------------
     ethr =  3.12E-09,  avg # of iterations =  3.0

     negative rho (up, down):  3.662E-01 0.000E+00

     total cpu time spent up to now is       21.6 secs

     total energy              =      -2.23343469 Ry
     estimated scf accuracy    <       0.00000116 Ry

     iteration # 93     ecut=    10.00 Ry     beta= 0.70
     Davidson diagonalization with overlap

---- Real-time Memory Report at c_bands before calling an iterative solver
           131 MiB given to the printing process from OS
             0 MiB allocation reported by mallinfo(arena+hblkhd)
          1166 MiB available memory on the node where the printing process lives
------------------
     ethr =  3.12E-09,  avg # of iterations =  4.0

     negative rho (up, down):  3.662E-01 0.000E+00

     total cpu time spent up to now is       21.8 secs

     total energy              =      -2.23349829 Ry
     estimated scf accuracy    <       0.00000019 Ry

     iteration # 94     ecut=    10.00 Ry     beta= 0.70
     Davidson diagonalization with overlap

---- Real-time Memory Report at c_bands before calling an iterative solver
           131 MiB given to the printing process from OS
             0 MiB allocation reported by mallinfo(arena+hblkhd)
          1166 MiB available memory on the node where the printing process lives
------------------
     ethr =  3.12E-09,  avg # of iterations =  3.0

     negative rho (up, down):  3.662E-01 0.000E+00

     total cpu time spent up to now is       22.0 secs

     total energy              =      -2.23348998 Ry
     estimated scf accuracy    <       0.00000025 Ry

     iteration # 95     ecut=    10.00 Ry     beta= 0.70
     Davidson diagonalization with overlap

---- Real-time Memory Report at c_bands before calling an iterative solver
           131 MiB given to the printing process from OS
             0 MiB allocation reported by mallinfo(arena+hblkhd)
          1166 MiB available memory on the node where the printing process lives
------------------
     ethr =  3.12E-09,  avg # of iterations =  3.0

     negative rho (up, down):  3.662E-01 0.000E+00

     total cpu time spent up to now is       22.3 secs

     total energy              =      -2.23347826 Ry
     estimated scf accuracy    <       0.00000017 Ry

     iteration # 96     ecut=    10.00 Ry     beta= 0.70
     Davidson diagonalization with overlap

---- Real-time Memory Report at c_bands before calling an iterative solver
           131 MiB given to the printing process from OS
             0 MiB allocation reported by mallinfo(arena+hblkhd)
          1166 MiB available memory on the node where the printing process lives
------------------
     ethr =  3.12E-09,  avg # of iterations =  3.0

     negative rho (up, down):  3.661E-01 0.000E+00

     total cpu time spent up to now is       22.5 secs

     total energy              =      -2.23352632 Ry
     estimated scf accuracy    <       0.00000006 Ry

     iteration # 97     ecut=    10.00 Ry     beta= 0.70
     Davidson diagonalization with overlap

---- Real-time Memory Report at c_bands before calling an iterative solver
           131 MiB given to the printing process from OS
             0 MiB allocation reported by mallinfo(arena+hblkhd)
          1166 MiB available memory on the node where the printing process lives
------------------
     ethr =  3.12E-09,  avg # of iterations =  3.0

     negative rho (up, down):  3.661E-01 0.000E+00

     total cpu time spent up to now is       22.7 secs

     total energy              =      -2.23353532 Ry
     estimated scf accuracy    <       0.00000017 Ry

     iteration # 98     ecut=    10.00 Ry     beta= 0.70
     Davidson diagonalization with overlap

---- Real-time Memory Report at c_bands before calling an iterative solver
           131 MiB given to the printing process from OS
             0 MiB allocation reported by mallinfo(arena+hblkhd)
          1166 MiB available memory on the node where the printing process lives
------------------
     ethr =  3.12E-09,  avg # of iterations =  3.0

     negative rho (up, down):  3.661E-01 0.000E+00

     total cpu time spent up to now is       22.9 secs

     total energy              =      -2.23353095 Ry
     estimated scf accuracy    <       0.00000011 Ry

     iteration # 99     ecut=    10.00 Ry     beta= 0.70
     Davidson diagonalization with overlap

---- Real-time Memory Report at c_bands before calling an iterative solver
           131 MiB given to the printing process from OS
             0 MiB allocation reported by mallinfo(arena+hblkhd)
          1166 MiB available memory on the node where the printing process lives
------------------
     ethr =  3.12E-09,  avg # of iterations =  2.0

     negative rho (up, down):  3.658E-01 0.000E+00

     total cpu time spent up to now is       23.1 secs

     total energy              =      -2.23364611 Ry
     estimated scf accuracy    <       0.00000012 Ry

     iteration #100     ecut=    10.00 Ry     beta= 0.70
     Davidson diagonalization with overlap

---- Real-time Memory Report at c_bands before calling an iterative solver
           131 MiB given to the printing process from OS
             0 MiB allocation reported by mallinfo(arena+hblkhd)
          1166 MiB available memory on the node where the printing process lives
------------------
     ethr =  3.12E-09,  avg # of iterations =  3.0

     negative rho (up, down):  3.656E-01 0.000E+00

     total cpu time spent up to now is       23.4 secs

     total energy              =      -2.23374128 Ry
     estimated scf accuracy    <       0.00000095 Ry

     End of self-consistent calculation

     convergence NOT achieved after 100 iterations: stopping

     Writing config to output data dir ./.save/
     Message from routine punch:
     wavefunctions written to file

     init_run     :      0.22s CPU      0.24s WALL (       1 calls)
     electrons    :     23.08s CPU     23.14s WALL (       1 calls)

     Called by init_run:
     wfcinit      :      0.01s CPU      0.02s WALL (       1 calls)
     wfcinit:atom :      0.00s CPU      0.00s WALL (       1 calls)
     wfcinit:wfcr :      0.01s CPU      0.01s WALL (       1 calls)
     potinit      :      0.13s CPU      0.15s WALL (       1 calls)
     hinit0       :      0.01s CPU      0.02s WALL (       1 calls)

     Called by electrons:
     c_bands      :      4.77s CPU      4.79s WALL (     100 calls)
     sum_band     :      2.50s CPU      2.51s WALL (     100 calls)
     v_of_rho     :     12.19s CPU     12.21s WALL (     101 calls)
     v_h          :      0.67s CPU      0.67s WALL (     101 calls)
     v_xc         :     11.52s CPU     11.54s WALL (     101 calls)
     newd         :      0.82s CPU      0.83s WALL (     101 calls)
     mix_rho      :      2.67s CPU      2.67s WALL (     100 calls)

     Called by c_bands:
     init_us_2    :      0.08s CPU      0.08s WALL (     201 calls)
     init_us_2:cp :      0.08s CPU      0.08s WALL (     201 calls)
     cegterg      :      4.72s CPU      4.74s WALL (     100 calls)

     Called by sum_band:
     sum_band:wei :      0.00s CPU      0.00s WALL (     100 calls)
     sum_band:loo :      0.69s CPU      0.69s WALL (     100 calls)
     sum_band:buf :      0.00s CPU      0.00s WALL (     100 calls)
     sum_band:ini :      0.04s CPU      0.04s WALL (     100 calls)
     sum_band:cal :      0.01s CPU      0.01s WALL (     100 calls)
     sum_band:bec :      0.00s CPU      0.00s WALL (     100 calls)
     addusdens    :      0.24s CPU      0.24s WALL (     100 calls)
     addusd:skk   :      0.07s CPU      0.07s WALL (     100 calls)
     addusd:dgemm :      0.05s CPU      0.05s WALL (     100 calls)
     addusd:qvan2 :      0.06s CPU      0.06s WALL (     100 calls)

     Called by *egterg:
     cdiaghg      :      0.01s CPU      0.01s WALL (     461 calls)
     cegterg:over :      0.07s CPU      0.07s WALL (     361 calls)
     cegterg:upda :      0.05s CPU      0.05s WALL (     361 calls)
     cegterg:last :      0.10s CPU      0.10s WALL (     272 calls)
     h_psi        :      4.39s CPU      4.41s WALL (     462 calls)
     s_psi        :      0.02s CPU      0.02s WALL (     462 calls)
     g_psi        :      0.02s CPU      0.02s WALL (     361 calls)

     Called by h_psi:
     h_psi:calbec :      0.04s CPU      0.04s WALL (     462 calls)
     vloc_psi     :      4.30s CPU      4.32s WALL (     462 calls)
     add_vuspsi   :      0.03s CPU      0.03s WALL (     462 calls)

     General routines
     calbec       :      0.04s CPU      0.04s WALL (     562 calls)
     fft          :      5.62s CPU      5.62s WALL (    1111 calls)
     ffts         :      0.51s CPU      0.51s WALL (     100 calls)
     fftw         :      4.44s CPU      4.47s WALL (    1592 calls)
     davcio       :      0.00s CPU      0.01s WALL (      19 calls)


     PWSCF        :     23.32s CPU     23.41s WALL


   This run was terminated on:  22:17: 5  28Feb2022            

=------------------------------------------------------------------------------=
   JOB DONE.
=------------------------------------------------------------------------------=
