
     Program PWSCF v.7.0 starts on 28Feb2022 at 22:14:39 

     This program is part of the open-source Quantum ESPRESSO suite
     for quantum simulation of materials; please cite
         "P. Giannozzi et al., J. Phys.:Condens. Matter 21 395502 (2009);
         "P. Giannozzi et al., J. Phys.:Condens. Matter 29 465901 (2017);
         "P. Giannozzi et al., J. Chem. Phys. 152 154105 (2020);
          URL http://www.quantum-espresso.org", 
     in publications or presentations arising from this work. More details at
     http://www.quantum-espresso.org/quote

     Serial version
     1309 MiB available memory on the printing compute node when the environment starts

     Waiting for input...
     Reading input from standard input

     Current dimensions of program PWSCF are:
     Max number of different atomic species (ntypx) = 10
     Max number of k-points (npk) =  40000
     Max angular momentum in pseudopotentials (lmaxx) =  4

    ============================================================
    |  pseudopotential report for atomic species:  1           |
    |        pseudo potential version   7   3   2              |
    ------------------------------------------------------------
    |  hydrogen            PBE                  exchange-corr  |
    |  z =   1.    zv( 1) =   1.    exfact =   5.00000         |
    |  ifpcor =  0           atomic energy =  -0.91772 Ry      |
    |  index    orbital      occupation    energy              |
    |    1        100           1.00       -0.48               |
    |  rinner =  0.5000                                        |
    |    new generation scheme:                                |
    |    nbeta =  1     kkbeta =  271     rcloc =    0.6000    |
    |    ibeta    l     epsilon   rcut                         |
    |      1       0      -0.48   0.80                         |
    ============================================================

     IMPORTANT: XC functional enforced from input :
     Exchange-correlation= BLYP
                           (   1   3   1   3   0   0   0)
     Any further DFT definition will be discarded
     Please, verify this is what you really want


     G-vector sticks info
     --------------------
     sticks:   dense  smooth     PW     G-vecs:    dense   smooth      PW
     Sum        1433    1433    421                40651    40651    6451

     Using Slab Decomposition



     bravais-lattice index     =            1
     lattice parameter (alat)  =      30.0000  a.u.
     unit-cell volume          =   27000.0000 (a.u.)^3
     number of atoms/cell      =            2
     number of atomic types    =            1
     number of electrons       =         2.00
     number of Kohn-Sham states=            2
     kinetic-energy cutoff     =       5.0000  Ry
     charge density cutoff     =      20.0000  Ry
     scf convergence threshold =      1.0E-08
     mixing beta               =       0.7000
     number of iterations used =            8  plain     mixing
     Exchange-correlation= BLYP
                           (   1   3   1   3   0   0   0)

     celldm(1)=  30.000000  celldm(2)=   0.000000  celldm(3)=   0.000000
     celldm(4)=   0.000000  celldm(5)=   0.000000  celldm(6)=   0.000000

     crystal axes: (cart. coord. in units of alat)
               a(1) = (   1.000000   0.000000   0.000000 )  
               a(2) = (   0.000000   1.000000   0.000000 )  
               a(3) = (   0.000000   0.000000   1.000000 )  

     reciprocal axes: (cart. coord. in units 2 pi/alat)
               b(1) = (  1.000000  0.000000  0.000000 )  
               b(2) = (  0.000000  1.000000  0.000000 )  
               b(3) = (  0.000000  0.000000  1.000000 )  


     PseudoPot. # 1 for hy read from file:
     /root/q-e/pseudo/H_US.van
     MD5 check sum: a9a9bfe98ff56cf4de197d71fc46bb44
     Pseudo is Ultrasoft, Zval =  1.0
     Generated by Vanderbilt code, v. 7.3.2
     Using radial grid of  399 points,  1 beta functions with: 
                l(1) =   0
     Q(r) pseudized with  8 coefficients,  rinner =    0.500

     atomic species   valence    mass     pseudopotential
        H              1.00     1.00784     hy( 1.00)

      8 Sym. Ops. (no inversion) found


                                    s                        frac. trans.

      isym =  1     identity                                     

 cryst.   s( 1) = (     1          0          0      )
                  (     0          1          0      )
                  (     0          0          1      )

 cart.    s( 1) = (  1.0000000  0.0000000  0.0000000 )
                  (  0.0000000  1.0000000  0.0000000 )
                  (  0.0000000  0.0000000  1.0000000 )


      isym =  2     180 deg rotation - cart. axis [1,0,0]        

 cryst.   s( 2) = (     1          0          0      )
                  (     0         -1          0      )
                  (     0          0         -1      )

 cart.    s( 2) = (  1.0000000  0.0000000  0.0000000 )
                  (  0.0000000 -1.0000000  0.0000000 )
                  (  0.0000000  0.0000000 -1.0000000 )


      isym =  3      90 deg rotation - cart. axis [-1,0,0]       

 cryst.   s( 3) = (     1          0          0      )
                  (     0          0         -1      )
                  (     0          1          0      )

 cart.    s( 3) = (  1.0000000  0.0000000  0.0000000 )
                  (  0.0000000  0.0000000  1.0000000 )
                  (  0.0000000 -1.0000000  0.0000000 )


      isym =  4      90 deg rotation - cart. axis [1,0,0]        

 cryst.   s( 4) = (     1          0          0      )
                  (     0          0          1      )
                  (     0         -1          0      )

 cart.    s( 4) = (  1.0000000  0.0000000  0.0000000 )
                  (  0.0000000  0.0000000 -1.0000000 )
                  (  0.0000000  1.0000000  0.0000000 )


      isym =  5     inv. 180 deg rotation - cart. axis [0,0,1]   

 cryst.   s( 5) = (     1          0          0      )
                  (     0          1          0      )
                  (     0          0         -1      )

 cart.    s( 5) = (  1.0000000  0.0000000  0.0000000 )
                  (  0.0000000  1.0000000  0.0000000 )
                  (  0.0000000  0.0000000 -1.0000000 )


      isym =  6     inv. 180 deg rotation - cart. axis [0,1,0]   

 cryst.   s( 6) = (     1          0          0      )
                  (     0         -1          0      )
                  (     0          0          1      )

 cart.    s( 6) = (  1.0000000  0.0000000  0.0000000 )
                  (  0.0000000 -1.0000000  0.0000000 )
                  (  0.0000000  0.0000000  1.0000000 )


      isym =  7     inv. 180 deg rotation - cart. axis [0,1,1]   

 cryst.   s( 7) = (     1          0          0      )
                  (     0          0         -1      )
                  (     0         -1          0      )

 cart.    s( 7) = (  1.0000000  0.0000000  0.0000000 )
                  (  0.0000000  0.0000000 -1.0000000 )
                  (  0.0000000 -1.0000000  0.0000000 )


      isym =  8     inv. 180 deg rotation - cart. axis [0,1,-1]  

 cryst.   s( 8) = (     1          0          0      )
                  (     0          0          1      )
                  (     0          1          0      )

 cart.    s( 8) = (  1.0000000  0.0000000  0.0000000 )
                  (  0.0000000  0.0000000  1.0000000 )
                  (  0.0000000  1.0000000  0.0000000 )


     point group C_4v (4mm) 
     there are  5 classes
     the character table:

       E     2C4   C2    2s_v  2s_d 
A_1    1.00  1.00  1.00  1.00  1.00
A_2    1.00  1.00  1.00 -1.00 -1.00
B_1    1.00 -1.00  1.00  1.00 -1.00
B_2    1.00 -1.00  1.00 -1.00  1.00
E      2.00  0.00 -2.00  0.00  0.00

     the symmetry operations in each class and the name of the first element:

     E        1
          identity                                               
     2C4      3    4
           90 deg rotation - cart. axis [-1,0,0]                 
     C2       2
          180 deg rotation - cart. axis [1,0,0]                  
     2s_v     5    6
          inv. 180 deg rotation - cart. axis [0,0,1]             
     2s_d     7    8
          inv. 180 deg rotation - cart. axis [0,1,1]             

   Cartesian axes

     site n.     atom                  positions (alat units)
         1           H   tau(   1) = (   0.0000000   0.0000000   0.0000000  )
         2           H   tau(   2) = (   0.0944863   0.0000000   0.0000000  )

   Crystallographic axes

     site n.     atom                  positions (cryst. coord.)
         1           H   tau(   1) = (  0.0000000  0.0000000  0.0000000  )
         2           H   tau(   2) = (  0.0944863  0.0000000  0.0000000  )

     number of k points=     1
                       cart. coord. in units 2pi/alat
        k(    1) = (  -0.5000000  -0.5000000  -0.5000000), wk =   2.0000000

                       cryst. coord.
        k(    1) = (  -0.5000000  -0.5000000  -0.5000000), wk =   2.0000000

     Dense  grid:    40651 G-vectors     FFT dimensions: (  45,  45,  45)

     Dynamical RAM for                 wfc:       0.16 MB

     Dynamical RAM for     wfc (w. buffer):       0.16 MB

     Dynamical RAM for           str. fact:       0.62 MB

     Dynamical RAM for           local pot:       0.00 MB

     Dynamical RAM for          nlocal pot:       0.16 MB

     Dynamical RAM for                qrad:       0.00 MB

     Dynamical RAM for          rho,v,vnew:       3.95 MB

     Dynamical RAM for               rhoin:       1.32 MB

     Dynamical RAM for            rho*nmix:       9.92 MB

     Dynamical RAM for           G-vectors:       2.64 MB

     Dynamical RAM for          h,s,v(r/c):       0.00 MB

     Dynamical RAM for          <psi|beta>:       0.00 MB

     Dynamical RAM for                 psi:       0.31 MB

     Dynamical RAM for                hpsi:       0.31 MB

     Dynamical RAM for                spsi:       0.31 MB

     Dynamical RAM for      wfcinit/wfcrot:       0.31 MB

     Dynamical RAM for           addusdens:       3.72 MB

     Estimated static dynamical RAM per process >      13.55 MB

     Estimated max dynamical RAM per process >      27.20 MB

     Initial potential from superposition of free atoms

     starting charge       2.0000, renormalised to       2.0000

     negative rho (up, down):  5.319E-01 0.000E+00
     Starting wfcs are    2 randomized atomic wfcs

     total cpu time spent up to now is        0.1 secs

     Self-consistent Calculation

     iteration #  1     ecut=     5.00 Ry     beta= 0.70
     Davidson diagonalization with overlap

---- Real-time Memory Report at c_bands before calling an iterative solver
            38 MiB given to the printing process from OS
             0 MiB allocation reported by mallinfo(arena+hblkhd)
          1290 MiB available memory on the node where the printing process lives
------------------
     ethr =  1.00E-02,  avg # of iterations =  2.0

     negative rho (up, down):  2.947E-01 0.000E+00

     total cpu time spent up to now is        0.2 secs

     total energy              =      -1.89434324 Ry
     estimated scf accuracy    <       0.02616508 Ry

     iteration #  2     ecut=     5.00 Ry     beta= 0.70
     Davidson diagonalization with overlap

---- Real-time Memory Report at c_bands before calling an iterative solver
            45 MiB given to the printing process from OS
             0 MiB allocation reported by mallinfo(arena+hblkhd)
          1277 MiB available memory on the node where the printing process lives
------------------
     ethr =  1.31E-03,  avg # of iterations =  1.0

     negative rho (up, down):  2.032E-01 0.000E+00

     total cpu time spent up to now is        0.2 secs

     total energy              =      -1.93193087 Ry
     estimated scf accuracy    <       0.00221670 Ry

     iteration #  3     ecut=     5.00 Ry     beta= 0.70
     Davidson diagonalization with overlap

---- Real-time Memory Report at c_bands before calling an iterative solver
            46 MiB given to the printing process from OS
             0 MiB allocation reported by mallinfo(arena+hblkhd)
          1275 MiB available memory on the node where the printing process lives
------------------
     ethr =  1.11E-04,  avg # of iterations =  2.0

     negative rho (up, down):  2.021E-01 0.000E+00

     total cpu time spent up to now is        0.3 secs

     total energy              =      -1.93263953 Ry
     estimated scf accuracy    <       0.00000511 Ry

     iteration #  4     ecut=     5.00 Ry     beta= 0.70
     Davidson diagonalization with overlap

---- Real-time Memory Report at c_bands before calling an iterative solver
            47 MiB given to the printing process from OS
             0 MiB allocation reported by mallinfo(arena+hblkhd)
          1274 MiB available memory on the node where the printing process lives
------------------
     ethr =  2.56E-07,  avg # of iterations =  6.0

     negative rho (up, down):  2.022E-01 0.000E+00

     total cpu time spent up to now is        0.4 secs

     total energy              =      -1.93267528 Ry
     estimated scf accuracy    <       0.00000507 Ry

     iteration #  5     ecut=     5.00 Ry     beta= 0.70
     Davidson diagonalization with overlap

---- Real-time Memory Report at c_bands before calling an iterative solver
            48 MiB given to the printing process from OS
             0 MiB allocation reported by mallinfo(arena+hblkhd)
          1273 MiB available memory on the node where the printing process lives
------------------
     ethr =  2.53E-07,  avg # of iterations =  3.0

     negative rho (up, down):  2.024E-01 0.000E+00

     total cpu time spent up to now is        0.5 secs

     total energy              =      -1.93278096 Ry
     estimated scf accuracy    <       0.00000142 Ry

     iteration #  6     ecut=     5.00 Ry     beta= 0.70
     Davidson diagonalization with overlap

---- Real-time Memory Report at c_bands before calling an iterative solver
            50 MiB given to the printing process from OS
             0 MiB allocation reported by mallinfo(arena+hblkhd)
          1272 MiB available memory on the node where the printing process lives
------------------
     ethr =  7.11E-08,  avg # of iterations =  3.0

     negative rho (up, down):  2.023E-01 0.000E+00

     total cpu time spent up to now is        0.5 secs

     total energy              =      -1.93272926 Ry
     estimated scf accuracy    <       0.00000048 Ry

     iteration #  7     ecut=     5.00 Ry     beta= 0.70
     Davidson diagonalization with overlap

---- Real-time Memory Report at c_bands before calling an iterative solver
            51 MiB given to the printing process from OS
             0 MiB allocation reported by mallinfo(arena+hblkhd)
          1270 MiB available memory on the node where the printing process lives
------------------
     ethr =  2.38E-08,  avg # of iterations =  4.0

     negative rho (up, down):  2.022E-01 0.000E+00

     total cpu time spent up to now is        0.6 secs

     total energy              =      -1.93276095 Ry
     estimated scf accuracy    <       0.00000102 Ry

     iteration #  8     ecut=     5.00 Ry     beta= 0.70
     Davidson diagonalization with overlap

---- Real-time Memory Report at c_bands before calling an iterative solver
            52 MiB given to the printing process from OS
             0 MiB allocation reported by mallinfo(arena+hblkhd)
          1269 MiB available memory on the node where the printing process lives
------------------
     ethr =  2.38E-08,  avg # of iterations =  4.0

     negative rho (up, down):  2.022E-01 0.000E+00

     total cpu time spent up to now is        0.7 secs

     total energy              =      -1.93279896 Ry
     estimated scf accuracy    <       0.00000016 Ry

     iteration #  9     ecut=     5.00 Ry     beta= 0.70
     Davidson diagonalization with overlap

---- Real-time Memory Report at c_bands before calling an iterative solver
            53 MiB given to the printing process from OS
             0 MiB allocation reported by mallinfo(arena+hblkhd)
          1268 MiB available memory on the node where the printing process lives
------------------
     ethr =  8.06E-09,  avg # of iterations =  2.0

     negative rho (up, down):  2.023E-01 0.000E+00

     total cpu time spent up to now is        0.8 secs

     total energy              =      -1.93278743 Ry
     estimated scf accuracy    <       0.00000009 Ry

     iteration # 10     ecut=     5.00 Ry     beta= 0.70
     Davidson diagonalization with overlap

---- Real-time Memory Report at c_bands before calling an iterative solver
            55 MiB given to the printing process from OS
             0 MiB allocation reported by mallinfo(arena+hblkhd)
          1267 MiB available memory on the node where the printing process lives
------------------
     ethr =  4.71E-09,  avg # of iterations =  3.0

     negative rho (up, down):  2.023E-01 0.000E+00

     total cpu time spent up to now is        0.8 secs

     total energy              =      -1.93280597 Ry
     estimated scf accuracy    <       0.00000002 Ry

     iteration # 11     ecut=     5.00 Ry     beta= 0.70
     Davidson diagonalization with overlap

---- Real-time Memory Report at c_bands before calling an iterative solver
            55 MiB given to the printing process from OS
             0 MiB allocation reported by mallinfo(arena+hblkhd)
          1267 MiB available memory on the node where the printing process lives
------------------
     ethr =  1.16E-09,  avg # of iterations =  4.0

     negative rho (up, down):  2.023E-01 0.000E+00

     total cpu time spent up to now is        0.9 secs

     total energy              =      -1.93278713 Ry
     estimated scf accuracy    <       0.00000016 Ry

     iteration # 12     ecut=     5.00 Ry     beta= 0.70
     Davidson diagonalization with overlap

---- Real-time Memory Report at c_bands before calling an iterative solver
            55 MiB given to the printing process from OS
             0 MiB allocation reported by mallinfo(arena+hblkhd)
          1267 MiB available memory on the node where the printing process lives
------------------
     ethr =  1.16E-09,  avg # of iterations =  4.0

     negative rho (up, down):  2.023E-01 0.000E+00

     total cpu time spent up to now is        1.0 secs

     total energy              =      -1.93273611 Ry
     estimated scf accuracy    <       0.00000005 Ry

     iteration # 13     ecut=     5.00 Ry     beta= 0.70
     Davidson diagonalization with overlap

---- Real-time Memory Report at c_bands before calling an iterative solver
            55 MiB given to the printing process from OS
             0 MiB allocation reported by mallinfo(arena+hblkhd)
          1267 MiB available memory on the node where the printing process lives
------------------
     ethr =  1.16E-09,  avg # of iterations =  6.0

     negative rho (up, down):  2.023E-01 0.000E+00

     total cpu time spent up to now is        1.1 secs

     total energy              =      -1.93276376 Ry
     estimated scf accuracy    <       0.00000143 Ry

     iteration # 14     ecut=     5.00 Ry     beta= 0.70
     Davidson diagonalization with overlap

---- Real-time Memory Report at c_bands before calling an iterative solver
            55 MiB given to the printing process from OS
             0 MiB allocation reported by mallinfo(arena+hblkhd)
          1267 MiB available memory on the node where the printing process lives
------------------
     ethr =  1.16E-09,  avg # of iterations =  6.0

     negative rho (up, down):  2.023E-01 0.000E+00

     total cpu time spent up to now is        1.2 secs

     total energy              =      -1.93278516 Ry
     estimated scf accuracy    <       0.00000014 Ry

     iteration # 15     ecut=     5.00 Ry     beta= 0.70
     Davidson diagonalization with overlap

---- Real-time Memory Report at c_bands before calling an iterative solver
            55 MiB given to the printing process from OS
             0 MiB allocation reported by mallinfo(arena+hblkhd)
          1267 MiB available memory on the node where the printing process lives
------------------
     ethr =  1.16E-09,  avg # of iterations =  4.0

     negative rho (up, down):  2.023E-01 0.000E+00

     total cpu time spent up to now is        1.2 secs

     total energy              =      -1.93273642 Ry
     estimated scf accuracy    <       0.00000005 Ry

     iteration # 16     ecut=     5.00 Ry     beta= 0.70
     Davidson diagonalization with overlap

---- Real-time Memory Report at c_bands before calling an iterative solver
            55 MiB given to the printing process from OS
             0 MiB allocation reported by mallinfo(arena+hblkhd)
          1267 MiB available memory on the node where the printing process lives
------------------
     ethr =  1.16E-09,  avg # of iterations =  6.0

     negative rho (up, down):  2.023E-01 0.000E+00

     total cpu time spent up to now is        1.3 secs

     total energy              =      -1.93276928 Ry
     estimated scf accuracy    <       0.00000124 Ry

     iteration # 17     ecut=     5.00 Ry     beta= 0.70
     Davidson diagonalization with overlap

---- Real-time Memory Report at c_bands before calling an iterative solver
            55 MiB given to the printing process from OS
             0 MiB allocation reported by mallinfo(arena+hblkhd)
          1267 MiB available memory on the node where the printing process lives
------------------
     ethr =  1.16E-09,  avg # of iterations =  1.0

     negative rho (up, down):  2.023E-01 0.000E+00

     total cpu time spent up to now is        1.4 secs

     total energy              =      -1.93275182 Ry
     estimated scf accuracy    <       0.00000124 Ry

     iteration # 18     ecut=     5.00 Ry     beta= 0.70
     Davidson diagonalization with overlap

---- Real-time Memory Report at c_bands before calling an iterative solver
            55 MiB given to the printing process from OS
             0 MiB allocation reported by mallinfo(arena+hblkhd)
          1267 MiB available memory on the node where the printing process lives
------------------
     ethr =  1.16E-09,  avg # of iterations =  6.0

     negative rho (up, down):  2.023E-01 0.000E+00

     total cpu time spent up to now is        1.5 secs

     total energy              =      -1.93278684 Ry
     estimated scf accuracy    <       0.00000003 Ry

     iteration # 19     ecut=     5.00 Ry     beta= 0.70
     Davidson diagonalization with overlap

---- Real-time Memory Report at c_bands before calling an iterative solver
            55 MiB given to the printing process from OS
             0 MiB allocation reported by mallinfo(arena+hblkhd)
          1267 MiB available memory on the node where the printing process lives
------------------
     ethr =  1.16E-09,  avg # of iterations =  1.0

     negative rho (up, down):  2.023E-01 0.000E+00

     total cpu time spent up to now is        1.6 secs

     total energy              =      -1.93278700 Ry
     estimated scf accuracy    <       0.00000003 Ry

     iteration # 20     ecut=     5.00 Ry     beta= 0.70
     Davidson diagonalization with overlap

---- Real-time Memory Report at c_bands before calling an iterative solver
            55 MiB given to the printing process from OS
             0 MiB allocation reported by mallinfo(arena+hblkhd)
          1267 MiB available memory on the node where the printing process lives
------------------
     ethr =  1.16E-09,  avg # of iterations =  1.0

     negative rho (up, down):  2.023E-01 0.000E+00

     total cpu time spent up to now is        1.6 secs

     total energy              =      -1.93275397 Ry
     estimated scf accuracy    <       0.00000003 Ry

     iteration # 21     ecut=     5.00 Ry     beta= 0.70
     Davidson diagonalization with overlap

---- Real-time Memory Report at c_bands before calling an iterative solver
            55 MiB given to the printing process from OS
             0 MiB allocation reported by mallinfo(arena+hblkhd)
          1267 MiB available memory on the node where the printing process lives
------------------
     ethr =  1.16E-09,  avg # of iterations =  6.0

     negative rho (up, down):  2.023E-01 0.000E+00

     total cpu time spent up to now is        1.7 secs

     total energy              =      -1.93279771 Ry
     estimated scf accuracy    <       0.00000207 Ry

     iteration # 22     ecut=     5.00 Ry     beta= 0.70
     Davidson diagonalization with overlap

---- Real-time Memory Report at c_bands before calling an iterative solver
            55 MiB given to the printing process from OS
             0 MiB allocation reported by mallinfo(arena+hblkhd)
          1267 MiB available memory on the node where the printing process lives
------------------
     ethr =  1.16E-09,  avg # of iterations =  1.0

     negative rho (up, down):  2.023E-01 0.000E+00

     total cpu time spent up to now is        1.8 secs

     total energy              =      -1.93279792 Ry
     estimated scf accuracy    <       0.00000208 Ry

     iteration # 23     ecut=     5.00 Ry     beta= 0.70
     Davidson diagonalization with overlap

---- Real-time Memory Report at c_bands before calling an iterative solver
            55 MiB given to the printing process from OS
             0 MiB allocation reported by mallinfo(arena+hblkhd)
          1267 MiB available memory on the node where the printing process lives
------------------
     ethr =  1.16E-09,  avg # of iterations =  1.0

     negative rho (up, down):  2.023E-01 0.000E+00

     total cpu time spent up to now is        1.9 secs

     total energy              =      -1.93275926 Ry
     estimated scf accuracy    <       0.00000209 Ry

     iteration # 24     ecut=     5.00 Ry     beta= 0.70
     Davidson diagonalization with overlap

---- Real-time Memory Report at c_bands before calling an iterative solver
            55 MiB given to the printing process from OS
             0 MiB allocation reported by mallinfo(arena+hblkhd)
          1267 MiB available memory on the node where the printing process lives
------------------
     ethr =  1.16E-09,  avg # of iterations =  6.0

     negative rho (up, down):  2.023E-01 0.000E+00

     total cpu time spent up to now is        2.0 secs

     total energy              =      -1.93275496 Ry
     estimated scf accuracy    <       0.00000016 Ry

     iteration # 25     ecut=     5.00 Ry     beta= 0.70
     Davidson diagonalization with overlap

---- Real-time Memory Report at c_bands before calling an iterative solver
            55 MiB given to the printing process from OS
             0 MiB allocation reported by mallinfo(arena+hblkhd)
          1267 MiB available memory on the node where the printing process lives
------------------
     ethr =  1.16E-09,  avg # of iterations =  6.0

     negative rho (up, down):  2.023E-01 0.000E+00

     total cpu time spent up to now is        2.0 secs

     total energy              =      -1.93279687 Ry
     estimated scf accuracy    <       0.00000204 Ry

     iteration # 26     ecut=     5.00 Ry     beta= 0.70
     Davidson diagonalization with overlap

---- Real-time Memory Report at c_bands before calling an iterative solver
            55 MiB given to the printing process from OS
             0 MiB allocation reported by mallinfo(arena+hblkhd)
          1267 MiB available memory on the node where the printing process lives
------------------
     ethr =  1.16E-09,  avg # of iterations =  1.0

     negative rho (up, down):  2.023E-01 0.000E+00

     total cpu time spent up to now is        2.1 secs

     total energy              =      -1.93279798 Ry
     estimated scf accuracy    <       0.00000204 Ry

     iteration # 27     ecut=     5.00 Ry     beta= 0.70
     Davidson diagonalization with overlap

---- Real-time Memory Report at c_bands before calling an iterative solver
            55 MiB given to the printing process from OS
             0 MiB allocation reported by mallinfo(arena+hblkhd)
          1267 MiB available memory on the node where the printing process lives
------------------
     ethr =  1.16E-09,  avg # of iterations =  2.0

     negative rho (up, down):  2.023E-01 0.000E+00

     total cpu time spent up to now is        2.2 secs

     total energy              =      -1.93279735 Ry
     estimated scf accuracy    <       0.00000209 Ry

     iteration # 28     ecut=     5.00 Ry     beta= 0.70
     Davidson diagonalization with overlap

---- Real-time Memory Report at c_bands before calling an iterative solver
            55 MiB given to the printing process from OS
             0 MiB allocation reported by mallinfo(arena+hblkhd)
          1267 MiB available memory on the node where the printing process lives
------------------
     ethr =  1.16E-09,  avg # of iterations =  1.0

     negative rho (up, down):  2.023E-01 0.000E+00

     total cpu time spent up to now is        2.2 secs

     total energy              =      -1.93277519 Ry
     estimated scf accuracy    <       0.00000207 Ry

     iteration # 29     ecut=     5.00 Ry     beta= 0.70
     Davidson diagonalization with overlap

---- Real-time Memory Report at c_bands before calling an iterative solver
            55 MiB given to the printing process from OS
             0 MiB allocation reported by mallinfo(arena+hblkhd)
          1267 MiB available memory on the node where the printing process lives
------------------
     ethr =  1.16E-09,  avg # of iterations =  4.0

     negative rho (up, down):  2.023E-01 0.000E+00

     total cpu time spent up to now is        2.3 secs

     total energy              =      -1.93277347 Ry
     estimated scf accuracy    <       0.00000154 Ry

     iteration # 30     ecut=     5.00 Ry     beta= 0.70
     Davidson diagonalization with overlap

---- Real-time Memory Report at c_bands before calling an iterative solver
            55 MiB given to the printing process from OS
             0 MiB allocation reported by mallinfo(arena+hblkhd)
          1267 MiB available memory on the node where the printing process lives
------------------
     ethr =  1.16E-09,  avg # of iterations =  2.0

     negative rho (up, down):  2.023E-01 0.000E+00

     total cpu time spent up to now is        2.4 secs

     total energy              =      -1.93277247 Ry
     estimated scf accuracy    <       0.00000142 Ry

     iteration # 31     ecut=     5.00 Ry     beta= 0.70
     Davidson diagonalization with overlap

---- Real-time Memory Report at c_bands before calling an iterative solver
            55 MiB given to the printing process from OS
             0 MiB allocation reported by mallinfo(arena+hblkhd)
          1267 MiB available memory on the node where the printing process lives
------------------
     ethr =  1.16E-09,  avg # of iterations =  2.0

     negative rho (up, down):  2.023E-01 0.000E+00

     total cpu time spent up to now is        2.5 secs

     total energy              =      -1.93277133 Ry
     estimated scf accuracy    <       0.00000138 Ry

     iteration # 32     ecut=     5.00 Ry     beta= 0.70
     Davidson diagonalization with overlap

---- Real-time Memory Report at c_bands before calling an iterative solver
            55 MiB given to the printing process from OS
             0 MiB allocation reported by mallinfo(arena+hblkhd)
          1267 MiB available memory on the node where the printing process lives
------------------
     ethr =  1.16E-09,  avg # of iterations =  2.0

     negative rho (up, down):  2.023E-01 0.000E+00

     total cpu time spent up to now is        2.6 secs

     total energy              =      -1.93277542 Ry
     estimated scf accuracy    <       0.00000133 Ry

     iteration # 33     ecut=     5.00 Ry     beta= 0.70
     Davidson diagonalization with overlap

---- Real-time Memory Report at c_bands before calling an iterative solver
            55 MiB given to the printing process from OS
             0 MiB allocation reported by mallinfo(arena+hblkhd)
          1267 MiB available memory on the node where the printing process lives
------------------
     ethr =  1.16E-09,  avg # of iterations =  3.0

     negative rho (up, down):  2.023E-01 0.000E+00

     total cpu time spent up to now is        2.6 secs

     total energy              =      -1.93272881 Ry
     estimated scf accuracy    <       0.00000151 Ry

     iteration # 34     ecut=     5.00 Ry     beta= 0.70
     Davidson diagonalization with overlap

---- Real-time Memory Report at c_bands before calling an iterative solver
            55 MiB given to the printing process from OS
             0 MiB allocation reported by mallinfo(arena+hblkhd)
          1267 MiB available memory on the node where the printing process lives
------------------
     ethr =  1.16E-09,  avg # of iterations =  5.0

     negative rho (up, down):  2.023E-01 0.000E+00

     total cpu time spent up to now is        2.7 secs

     total energy              =      -1.93273448 Ry
     estimated scf accuracy    <       0.00000051 Ry

     iteration # 35     ecut=     5.00 Ry     beta= 0.70
     Davidson diagonalization with overlap

---- Real-time Memory Report at c_bands before calling an iterative solver
            55 MiB given to the printing process from OS
             0 MiB allocation reported by mallinfo(arena+hblkhd)
          1266 MiB available memory on the node where the printing process lives
------------------
     ethr =  1.16E-09,  avg # of iterations =  3.0

     negative rho (up, down):  2.023E-01 0.000E+00

     total cpu time spent up to now is        2.8 secs

     total energy              =      -1.93273265 Ry
     estimated scf accuracy    <       0.00000046 Ry

     iteration # 36     ecut=     5.00 Ry     beta= 0.70
     Davidson diagonalization with overlap

---- Real-time Memory Report at c_bands before calling an iterative solver
            55 MiB given to the printing process from OS
             0 MiB allocation reported by mallinfo(arena+hblkhd)
          1266 MiB available memory on the node where the printing process lives
------------------
     ethr =  1.16E-09,  avg # of iterations =  3.0

     negative rho (up, down):  2.023E-01 0.000E+00

     total cpu time spent up to now is        2.9 secs

     total energy              =      -1.93272789 Ry
     estimated scf accuracy    <       0.00000040 Ry

     iteration # 37     ecut=     5.00 Ry     beta= 0.70
     Davidson diagonalization with overlap

---- Real-time Memory Report at c_bands before calling an iterative solver
            55 MiB given to the printing process from OS
             0 MiB allocation reported by mallinfo(arena+hblkhd)
          1266 MiB available memory on the node where the printing process lives
------------------
     ethr =  1.16E-09,  avg # of iterations =  4.0

     negative rho (up, down):  2.023E-01 0.000E+00

     total cpu time spent up to now is        2.9 secs

     total energy              =      -1.93276070 Ry
     estimated scf accuracy    <       0.00000028 Ry

     iteration # 38     ecut=     5.00 Ry     beta= 0.70
     Davidson diagonalization with overlap

---- Real-time Memory Report at c_bands before calling an iterative solver
            55 MiB given to the printing process from OS
             0 MiB allocation reported by mallinfo(arena+hblkhd)
          1266 MiB available memory on the node where the printing process lives
------------------
     ethr =  1.16E-09,  avg # of iterations =  4.0

     negative rho (up, down):  2.023E-01 0.000E+00

     total cpu time spent up to now is        3.0 secs

     total energy              =      -1.93273792 Ry
     estimated scf accuracy    <       0.00000047 Ry

     iteration # 39     ecut=     5.00 Ry     beta= 0.70
     Davidson diagonalization with overlap

---- Real-time Memory Report at c_bands before calling an iterative solver
            55 MiB given to the printing process from OS
             0 MiB allocation reported by mallinfo(arena+hblkhd)
          1266 MiB available memory on the node where the printing process lives
------------------
     ethr =  1.16E-09,  avg # of iterations =  4.0

     negative rho (up, down):  2.023E-01 0.000E+00

     total cpu time spent up to now is        3.1 secs

     total energy              =      -1.93274105 Ry
     estimated scf accuracy    <       0.00000025 Ry

     iteration # 40     ecut=     5.00 Ry     beta= 0.70
     Davidson diagonalization with overlap

---- Real-time Memory Report at c_bands before calling an iterative solver
            55 MiB given to the printing process from OS
             0 MiB allocation reported by mallinfo(arena+hblkhd)
          1266 MiB available memory on the node where the printing process lives
------------------
     ethr =  1.16E-09,  avg # of iterations =  2.0

     negative rho (up, down):  2.022E-01 0.000E+00

     total cpu time spent up to now is        3.2 secs

     total energy              =      -1.93278211 Ry
     estimated scf accuracy    <       0.00000028 Ry

     iteration # 41     ecut=     5.00 Ry     beta= 0.70
     Davidson diagonalization with overlap

---- Real-time Memory Report at c_bands before calling an iterative solver
            55 MiB given to the printing process from OS
             0 MiB allocation reported by mallinfo(arena+hblkhd)
          1266 MiB available memory on the node where the printing process lives
------------------
     ethr =  1.16E-09,  avg # of iterations =  4.0

     negative rho (up, down):  2.023E-01 0.000E+00

     total cpu time spent up to now is        3.2 secs

     total energy              =      -1.93272265 Ry
     estimated scf accuracy    <       0.00000104 Ry

     iteration # 42     ecut=     5.00 Ry     beta= 0.70
     Davidson diagonalization with overlap

---- Real-time Memory Report at c_bands before calling an iterative solver
            55 MiB given to the printing process from OS
             0 MiB allocation reported by mallinfo(arena+hblkhd)
          1266 MiB available memory on the node where the printing process lives
------------------
     ethr =  1.16E-09,  avg # of iterations =  4.0

     negative rho (up, down):  2.024E-01 0.000E+00

     total cpu time spent up to now is        3.3 secs

     total energy              =      -1.93270542 Ry
     estimated scf accuracy    <       0.00000031 Ry

     iteration # 43     ecut=     5.00 Ry     beta= 0.70
     Davidson diagonalization with overlap

---- Real-time Memory Report at c_bands before calling an iterative solver
            55 MiB given to the printing process from OS
             0 MiB allocation reported by mallinfo(arena+hblkhd)
          1266 MiB available memory on the node where the printing process lives
------------------
     ethr =  1.16E-09,  avg # of iterations =  4.0

     negative rho (up, down):  2.024E-01 0.000E+00

     total cpu time spent up to now is        3.4 secs

     total energy              =      -1.93273906 Ry
     estimated scf accuracy    <       0.00000043 Ry

     iteration # 44     ecut=     5.00 Ry     beta= 0.70
     Davidson diagonalization with overlap

---- Real-time Memory Report at c_bands before calling an iterative solver
            55 MiB given to the printing process from OS
             0 MiB allocation reported by mallinfo(arena+hblkhd)
          1266 MiB available memory on the node where the printing process lives
------------------
     ethr =  1.16E-09,  avg # of iterations =  4.0

     negative rho (up, down):  2.023E-01 0.000E+00

     total cpu time spent up to now is        3.5 secs

     total energy              =      -1.93280344 Ry
     estimated scf accuracy    <       0.00000067 Ry

     iteration # 45     ecut=     5.00 Ry     beta= 0.70
     Davidson diagonalization with overlap

---- Real-time Memory Report at c_bands before calling an iterative solver
            55 MiB given to the printing process from OS
             0 MiB allocation reported by mallinfo(arena+hblkhd)
          1266 MiB available memory on the node where the printing process lives
------------------
     ethr =  1.16E-09,  avg # of iterations =  4.0

     negative rho (up, down):  2.022E-01 0.000E+00

     total cpu time spent up to now is        3.6 secs

     total energy              =      -1.93282533 Ry
     estimated scf accuracy    <       0.00000012 Ry

     iteration # 46     ecut=     5.00 Ry     beta= 0.70
     Davidson diagonalization with overlap

---- Real-time Memory Report at c_bands before calling an iterative solver
            55 MiB given to the printing process from OS
             0 MiB allocation reported by mallinfo(arena+hblkhd)
          1266 MiB available memory on the node where the printing process lives
------------------
     ethr =  1.16E-09,  avg # of iterations =  3.0

     negative rho (up, down):  2.022E-01 0.000E+00

     total cpu time spent up to now is        3.6 secs

     End of self-consistent calculation

          k =-0.5000-0.5000-0.5000 (  5040 PWs)   bands (ev):

    -7.8920  -3.1057

     occupation numbers 
     1.0000   0.0000

     highest occupied, lowest unoccupied level (ev):    -7.8920   -3.1057

!    total energy              =      -1.93283594 Ry
     estimated scf accuracy    <          9.2E-09 Ry

     The total energy is the sum of the following terms:
     one-electron contribution =      -2.72132765 Ry
     hartree contribution      =       1.46279267 Ry
     xc contribution           =      -1.00282732 Ry
     ewald contribution        =       0.32852635 Ry

     convergence has been achieved in  46 iterations

     Writing all to output data dir ./.save/

     init_run     :      0.08s CPU      0.08s WALL (       1 calls)
     electrons    :      3.50s CPU      3.53s WALL (       1 calls)

     Called by init_run:
     wfcinit      :      0.01s CPU      0.01s WALL (       1 calls)
     wfcinit:atom :      0.00s CPU      0.00s WALL (       1 calls)
     wfcinit:wfcr :      0.00s CPU      0.00s WALL (       1 calls)
     potinit      :      0.05s CPU      0.05s WALL (       1 calls)
     hinit0       :      0.00s CPU      0.01s WALL (       1 calls)

     Called by electrons:
     c_bands      :      0.75s CPU      0.76s WALL (      46 calls)
     sum_band     :      0.37s CPU      0.37s WALL (      46 calls)
     v_of_rho     :      1.88s CPU      1.89s WALL (      47 calls)
     v_h          :      0.10s CPU      0.10s WALL (      47 calls)
     v_xc         :      1.79s CPU      1.80s WALL (      47 calls)
     newd         :      0.12s CPU      0.12s WALL (      47 calls)
     mix_rho      :      0.38s CPU      0.39s WALL (      46 calls)

     Called by c_bands:
     init_us_2    :      0.01s CPU      0.01s WALL (      93 calls)
     init_us_2:cp :      0.01s CPU      0.01s WALL (      93 calls)
     cegterg      :      0.74s CPU      0.75s WALL (      46 calls)

     Called by sum_band:
     sum_band:wei :      0.00s CPU      0.00s WALL (      46 calls)
     sum_band:loo :      0.11s CPU      0.11s WALL (      46 calls)
     sum_band:buf :      0.00s CPU      0.00s WALL (      46 calls)
     sum_band:ini :      0.01s CPU      0.01s WALL (      46 calls)
     sum_band:cal :      0.00s CPU      0.00s WALL (      46 calls)
     sum_band:bec :      0.00s CPU      0.00s WALL (      46 calls)
     addusdens    :      0.04s CPU      0.04s WALL (      46 calls)
     addusd:skk   :      0.01s CPU      0.01s WALL (      46 calls)
     addusd:dgemm :      0.01s CPU      0.01s WALL (      46 calls)
     addusd:qvan2 :      0.01s CPU      0.01s WALL (      46 calls)

     Called by *egterg:
     cdiaghg      :      0.00s CPU      0.00s WALL (     200 calls)
     cegterg:over :      0.01s CPU      0.01s WALL (     154 calls)
     cegterg:upda :      0.01s CPU      0.01s WALL (     154 calls)
     cegterg:last :      0.02s CPU      0.02s WALL (     128 calls)
     h_psi        :      0.69s CPU      0.70s WALL (     201 calls)
     s_psi        :      0.00s CPU      0.00s WALL (     201 calls)
     g_psi        :      0.00s CPU      0.00s WALL (     154 calls)

     Called by h_psi:
     h_psi:calbec :      0.01s CPU      0.01s WALL (     201 calls)
     vloc_psi     :      0.68s CPU      0.69s WALL (     201 calls)
     add_vuspsi   :      0.00s CPU      0.00s WALL (     201 calls)

     General routines
     calbec       :      0.01s CPU      0.01s WALL (     247 calls)
     fft          :      0.81s CPU      0.82s WALL (     516 calls)
     ffts         :      0.07s CPU      0.07s WALL (      46 calls)
     fftw         :      0.71s CPU      0.73s WALL (     728 calls)


     PWSCF        :      3.60s CPU      3.64s WALL


   This run was terminated on:  22:14:42  28Feb2022            

=------------------------------------------------------------------------------=
   JOB DONE.
=------------------------------------------------------------------------------=
