
     Program PWSCF v.7.0 starts on 28Feb2022 at  4: 3:29 

     This program is part of the open-source Quantum ESPRESSO suite
     for quantum simulation of materials; please cite
         "P. Giannozzi et al., J. Phys.:Condens. Matter 21 395502 (2009);
         "P. Giannozzi et al., J. Phys.:Condens. Matter 29 465901 (2017);
         "P. Giannozzi et al., J. Chem. Phys. 152 154105 (2020);
          URL http://www.quantum-espresso.org", 
     in publications or presentations arising from this work. More details at
     http://www.quantum-espresso.org/quote

     Serial version
     544 MiB available memory on the printing compute node when the environment starts

     Waiting for input...
     Reading input from standard input

     Current dimensions of program PWSCF are:
     Max number of different atomic species (ntypx) = 10
     Max number of k-points (npk) =  40000
     Max angular momentum in pseudopotentials (lmaxx) =  4

     File ./.update deleted, as requested

     File ./.bfgs deleted, as requested

    ============================================================
    |  pseudopotential report for atomic species:  1           |
    |        pseudo potential version   7   3   2              |
    ------------------------------------------------------------
    |  hydrogen            PBE                  exchange-corr  |
    |  z =   1.    zv( 1) =   1.    exfact =   5.00000         |
    |  ifpcor =  0           atomic energy =  -0.91772 Ry      |
    |  index    orbital      occupation    energy              |
    |    1        100           1.00       -0.48               |
    |  rinner =  0.5000                                        |
    |    new generation scheme:                                |
    |    nbeta =  1     kkbeta =  271     rcloc =    0.6000    |
    |    ibeta    l     epsilon   rcut                         |
    |      1       0      -0.48   0.80                         |
    ============================================================

     IMPORTANT: XC functional enforced from input :
     Exchange-correlation= BLYP
                           (   1   3   1   3   0   0   0)
     Any further DFT definition will be discarded
     Please, verify this is what you really want


     G-vector sticks info
     --------------------
     sticks:   dense  smooth     PW     G-vecs:    dense   smooth      PW
     Sum        7153    7153   1925               455863   455863   63461

     Using Slab Decomposition



     bravais-lattice index     =            1
     lattice parameter (alat)  =      30.0000  a.u.
     unit-cell volume          =   27000.0000 (a.u.)^3
     number of atoms/cell      =            2
     number of atomic types    =            1
     number of electrons       =         2.00
     number of Kohn-Sham states=            2
     kinetic-energy cutoff     =      25.0000  Ry
     charge density cutoff     =     100.0000  Ry
     scf convergence threshold =      1.0E-08
     mixing beta               =       0.7000
     number of iterations used =            8  plain     mixing
     energy convergence thresh.=      1.0E-04
     force convergence thresh. =      1.0E-03
     Exchange-correlation= BLYP
                           (   1   3   1   3   0   0   0)
     nstep                     =           50


     celldm(1)=  30.000000  celldm(2)=   0.000000  celldm(3)=   0.000000
     celldm(4)=   0.000000  celldm(5)=   0.000000  celldm(6)=   0.000000

     crystal axes: (cart. coord. in units of alat)
               a(1) = (   1.000000   0.000000   0.000000 )  
               a(2) = (   0.000000   1.000000   0.000000 )  
               a(3) = (   0.000000   0.000000   1.000000 )  

     reciprocal axes: (cart. coord. in units 2 pi/alat)
               b(1) = (  1.000000  0.000000  0.000000 )  
               b(2) = (  0.000000  1.000000  0.000000 )  
               b(3) = (  0.000000  0.000000  1.000000 )  


     PseudoPot. # 1 for hy read from file:
     /root/q-e/pseudo/H_US.van
     MD5 check sum: a9a9bfe98ff56cf4de197d71fc46bb44
     Pseudo is Ultrasoft, Zval =  1.0
     Generated by Vanderbilt code, v. 7.3.2
     Using radial grid of  399 points,  1 beta functions with: 
                l(1) =   0
     Q(r) pseudized with  8 coefficients,  rinner =    0.500

     atomic species   valence    mass     pseudopotential
        H              1.00     1.00784     hy( 1.00)

      8 Sym. Ops. (no inversion) found


                                    s                        frac. trans.

      isym =  1     identity                                     

 cryst.   s( 1) = (     1          0          0      )
                  (     0          1          0      )
                  (     0          0          1      )

 cart.    s( 1) = (  1.0000000  0.0000000  0.0000000 )
                  (  0.0000000  1.0000000  0.0000000 )
                  (  0.0000000  0.0000000  1.0000000 )


      isym =  2     180 deg rotation - cart. axis [1,0,0]        

 cryst.   s( 2) = (     1          0          0      )
                  (     0         -1          0      )
                  (     0          0         -1      )

 cart.    s( 2) = (  1.0000000  0.0000000  0.0000000 )
                  (  0.0000000 -1.0000000  0.0000000 )
                  (  0.0000000  0.0000000 -1.0000000 )


      isym =  3      90 deg rotation - cart. axis [-1,0,0]       

 cryst.   s( 3) = (     1          0          0      )
                  (     0          0         -1      )
                  (     0          1          0      )

 cart.    s( 3) = (  1.0000000  0.0000000  0.0000000 )
                  (  0.0000000  0.0000000  1.0000000 )
                  (  0.0000000 -1.0000000  0.0000000 )


      isym =  4      90 deg rotation - cart. axis [1,0,0]        

 cryst.   s( 4) = (     1          0          0      )
                  (     0          0          1      )
                  (     0         -1          0      )

 cart.    s( 4) = (  1.0000000  0.0000000  0.0000000 )
                  (  0.0000000  0.0000000 -1.0000000 )
                  (  0.0000000  1.0000000  0.0000000 )


      isym =  5     inv. 180 deg rotation - cart. axis [0,0,1]   

 cryst.   s( 5) = (     1          0          0      )
                  (     0          1          0      )
                  (     0          0         -1      )

 cart.    s( 5) = (  1.0000000  0.0000000  0.0000000 )
                  (  0.0000000  1.0000000  0.0000000 )
                  (  0.0000000  0.0000000 -1.0000000 )


      isym =  6     inv. 180 deg rotation - cart. axis [0,1,0]   

 cryst.   s( 6) = (     1          0          0      )
                  (     0         -1          0      )
                  (     0          0          1      )

 cart.    s( 6) = (  1.0000000  0.0000000  0.0000000 )
                  (  0.0000000 -1.0000000  0.0000000 )
                  (  0.0000000  0.0000000  1.0000000 )


      isym =  7     inv. 180 deg rotation - cart. axis [0,1,1]   

 cryst.   s( 7) = (     1          0          0      )
                  (     0          0         -1      )
                  (     0         -1          0      )

 cart.    s( 7) = (  1.0000000  0.0000000  0.0000000 )
                  (  0.0000000  0.0000000 -1.0000000 )
                  (  0.0000000 -1.0000000  0.0000000 )


      isym =  8     inv. 180 deg rotation - cart. axis [0,1,-1]  

 cryst.   s( 8) = (     1          0          0      )
                  (     0          0          1      )
                  (     0          1          0      )

 cart.    s( 8) = (  1.0000000  0.0000000  0.0000000 )
                  (  0.0000000  0.0000000  1.0000000 )
                  (  0.0000000  1.0000000  0.0000000 )


     point group C_4v (4mm) 
     there are  5 classes
     the character table:

       E     2C4   C2    2s_v  2s_d 
A_1    1.00  1.00  1.00  1.00  1.00
A_2    1.00  1.00  1.00 -1.00 -1.00
B_1    1.00 -1.00  1.00  1.00 -1.00
B_2    1.00 -1.00  1.00 -1.00  1.00
E      2.00  0.00 -2.00  0.00  0.00

     the symmetry operations in each class and the name of the first element:

     E        1
          identity                                               
     2C4      3    4
           90 deg rotation - cart. axis [-1,0,0]                 
     C2       2
          180 deg rotation - cart. axis [1,0,0]                  
     2s_v     5    6
          inv. 180 deg rotation - cart. axis [0,0,1]             
     2s_d     7    8
          inv. 180 deg rotation - cart. axis [0,1,1]             

   Cartesian axes

     site n.     atom                  positions (alat units)
         1           H   tau(   1) = (   0.0000000   0.0000000   0.0000000  )
         2           H   tau(   2) = (   0.0541721   0.0000000   0.0000000  )

   Crystallographic axes

     site n.     atom                  positions (cryst. coord.)
         1           H   tau(   1) = (  0.0000000  0.0000000  0.0000000  )
         2           H   tau(   2) = (  0.0541721  0.0000000  0.0000000  )

     number of k points=     1
                       cart. coord. in units 2pi/alat
        k(    1) = (  -0.5000000  -0.5000000  -0.5000000), wk =   2.0000000

                       cryst. coord.
        k(    1) = (  -0.5000000  -0.5000000  -0.5000000), wk =   2.0000000

     Dense  grid:   455863 G-vectors     FFT dimensions: (  96,  96,  96)

     Dynamical RAM for                 wfc:       1.74 MB

     Dynamical RAM for     wfc (w. buffer):       1.74 MB

     Dynamical RAM for           str. fact:       6.96 MB

     Dynamical RAM for           local pot:       0.00 MB

     Dynamical RAM for          nlocal pot:       1.74 MB

     Dynamical RAM for                qrad:       0.01 MB

     Dynamical RAM for          rho,v,vnew:      41.12 MB

     Dynamical RAM for               rhoin:      13.71 MB

     Dynamical RAM for            rho*nmix:     111.29 MB

     Dynamical RAM for           G-vectors:      29.56 MB

     Dynamical RAM for          h,s,v(r/c):       0.00 MB

     Dynamical RAM for          <psi|beta>:       0.00 MB

     Dynamical RAM for                 psi:       3.48 MB

     Dynamical RAM for                hpsi:       3.48 MB

     Dynamical RAM for                spsi:       3.48 MB

     Dynamical RAM for      wfcinit/wfcrot:       3.48 MB

     Dynamical RAM for           addusdens:      41.74 MB

     Dynamical RAM for          addusforce:      59.13 MB

     Estimated static dynamical RAM per process >     142.49 MB

     Estimated max dynamical RAM per process >     312.91 MB

     Initial potential from superposition of free atoms

     starting charge       2.0000, renormalised to       2.0000

     negative rho (up, down):  2.935E-02 0.000E+00
     Starting wfcs are    2 randomized atomic wfcs

     total cpu time spent up to now is        0.8 secs

     Self-consistent Calculation

     iteration #  1     ecut=    25.00 Ry     beta= 0.70
     Davidson diagonalization with overlap

---- Real-time Memory Report at c_bands before calling an iterative solver
           245 MiB given to the printing process from OS
             0 MiB allocation reported by mallinfo(arena+hblkhd)
           374 MiB available memory on the node where the printing process lives
------------------
     ethr =  1.00E-02,  avg # of iterations =  3.0

     negative rho (up, down):  3.668E-02 0.000E+00

     total cpu time spent up to now is        1.6 secs

     total energy              =      -2.30235363 Ry
     estimated scf accuracy    <       0.08343680 Ry

     iteration #  2     ecut=    25.00 Ry     beta= 0.70
     Davidson diagonalization with overlap

---- Real-time Memory Report at c_bands before calling an iterative solver
           308 MiB given to the printing process from OS
             0 MiB allocation reported by mallinfo(arena+hblkhd)
           249 MiB available memory on the node where the printing process lives
------------------
     ethr =  4.17E-03,  avg # of iterations =  2.0

     negative rho (up, down):  3.795E-02 0.000E+00

     total cpu time spent up to now is        2.4 secs

     total energy              =      -2.30716541 Ry
     estimated scf accuracy    <       0.00098931 Ry

     iteration #  3     ecut=    25.00 Ry     beta= 0.70
     Davidson diagonalization with overlap

---- Real-time Memory Report at c_bands before calling an iterative solver
           322 MiB given to the printing process from OS
             0 MiB allocation reported by mallinfo(arena+hblkhd)
           235 MiB available memory on the node where the printing process lives
------------------
     ethr =  4.95E-05,  avg # of iterations = 11.0

     negative rho (up, down):  3.758E-02 0.000E+00

     total cpu time spent up to now is        3.4 secs

     total energy              =      -2.30772817 Ry
     estimated scf accuracy    <       0.00001499 Ry

     iteration #  4     ecut=    25.00 Ry     beta= 0.70
     Davidson diagonalization with overlap

---- Real-time Memory Report at c_bands before calling an iterative solver
           336 MiB given to the printing process from OS
             0 MiB allocation reported by mallinfo(arena+hblkhd)
           221 MiB available memory on the node where the printing process lives
------------------
     ethr =  7.50E-07,  avg # of iterations =  5.0

     negative rho (up, down):  3.756E-02 0.000E+00

     total cpu time spent up to now is        4.3 secs

     total energy              =      -2.30773976 Ry
     estimated scf accuracy    <       0.00000056 Ry

     iteration #  5     ecut=    25.00 Ry     beta= 0.70
     Davidson diagonalization with overlap

---- Real-time Memory Report at c_bands before calling an iterative solver
           350 MiB given to the printing process from OS
             0 MiB allocation reported by mallinfo(arena+hblkhd)
           207 MiB available memory on the node where the printing process lives
------------------
     ethr =  2.81E-08,  avg # of iterations =  1.0

     negative rho (up, down):  3.757E-02 0.000E+00

     total cpu time spent up to now is        5.0 secs

     End of self-consistent calculation

          k =-0.5000-0.5000-0.5000 ( 57016 PWs)   bands (ev):

    -9.8711  -0.9226

     occupation numbers 
     1.0000   0.0000

     highest occupied, lowest unoccupied level (ev):    -9.8711   -0.9226

!    total energy              =      -2.30773417 Ry
     estimated scf accuracy    <          7.3E-09 Ry

     The total energy is the sum of the following terms:
     one-electron contribution =      -3.94168249 Ry
     hartree contribution      =       2.09949136 Ry
     xc contribution           =      -1.31829290 Ry
     ewald contribution        =       0.85274986 Ry

     convergence has been achieved in   5 iterations

     Forces acting on atoms (cartesian axes, Ry/au):

     atom    1 type  1   force =     0.11924433    0.00000000    0.00000000
     atom    2 type  1   force =    -0.11924433    0.00000000    0.00000000
     The non-local contrib.  to forces
     atom    1 type  1   force =     0.09195900    0.00000000    0.00000000
     atom    2 type  1   force =    -0.09184660    0.00000000    0.00000000
     The ionic contribution  to forces
     atom    1 type  1   force =    -0.75673451   -0.00000000   -0.00000000
     atom    2 type  1   force =     0.75673451   -0.00000000   -0.00000000
     The local contribution  to forces
     atom    1 type  1   force =     0.78409499    0.00000000    0.00000000
     atom    2 type  1   force =    -0.78412070    0.00000000    0.00000000
     The core correction contribution to forces
     atom    1 type  1   force =     0.00000000    0.00000000    0.00000000
     atom    2 type  1   force =     0.00000000    0.00000000    0.00000000
     The Hubbard contrib.    to forces
     atom    1 type  1   force =     0.00000000    0.00000000    0.00000000
     atom    2 type  1   force =     0.00000000    0.00000000    0.00000000
     The SCF correction term to forces
     atom    1 type  1   force =    -0.00002512    0.00000000   -0.00000000
     atom    2 type  1   force =     0.00003850   -0.00000000   -0.00000000

     Total force =     0.168637     Total SCF correction =     0.000046

     BFGS Geometry Optimization
     Energy error            =      0.0E+00 Ry
     Gradient error          =      1.2E-01 Ry/Bohr

     number of scf cycles    =   1
     number of bfgs steps    =   0

     energy             new  =      -2.3077341706 Ry

     new trust radius        =       0.1192443329 bohr
     new conv_thr            =       0.0000000100 Ry


ATOMIC_POSITIONS (angstrom)
H             0.0631013835        0.0000000000        0.0000000000
H             0.7968986165        0.0000000000        0.0000000000



     Writing config-only to output data dir ./.save/
     NEW-OLD atomic charge density approx. for the potential

     negative rho (up, down):  3.842E-02 0.000E+00

     total cpu time spent up to now is        5.7 secs

     Self-consistent Calculation

     iteration #  1     ecut=    25.00 Ry     beta= 0.70
     Davidson diagonalization with overlap

---- Real-time Memory Report at c_bands before calling an iterative solver
           356 MiB given to the printing process from OS
             0 MiB allocation reported by mallinfo(arena+hblkhd)
           368 MiB available memory on the node where the printing process lives
------------------
     ethr =  1.00E-06,  avg # of iterations =  9.0

     negative rho (up, down):  4.425E-02 0.000E+00

     total cpu time spent up to now is        6.8 secs

     total energy              =      -2.31775236 Ry
     estimated scf accuracy    <       0.00396569 Ry

     iteration #  2     ecut=    25.00 Ry     beta= 0.70
     Davidson diagonalization with overlap

---- Real-time Memory Report at c_bands before calling an iterative solver
           356 MiB given to the printing process from OS
             0 MiB allocation reported by mallinfo(arena+hblkhd)
           242 MiB available memory on the node where the printing process lives
------------------
     ethr =  1.98E-04,  avg # of iterations =  1.0

     negative rho (up, down):  4.561E-02 0.000E+00

     total cpu time spent up to now is        7.5 secs

     total energy              =      -2.31715926 Ry
     estimated scf accuracy    <       0.00004128 Ry

     iteration #  3     ecut=    25.00 Ry     beta= 0.70
     Davidson diagonalization with overlap

---- Real-time Memory Report at c_bands before calling an iterative solver
           356 MiB given to the printing process from OS
             0 MiB allocation reported by mallinfo(arena+hblkhd)
           228 MiB available memory on the node where the printing process lives
------------------
     ethr =  2.06E-06,  avg # of iterations =  5.0

     negative rho (up, down):  4.590E-02 0.000E+00

     total cpu time spent up to now is        8.4 secs

     total energy              =      -2.31695876 Ry
     estimated scf accuracy    <       0.00000163 Ry

     iteration #  4     ecut=    25.00 Ry     beta= 0.70
     Davidson diagonalization with overlap

---- Real-time Memory Report at c_bands before calling an iterative solver
           356 MiB given to the printing process from OS
             0 MiB allocation reported by mallinfo(arena+hblkhd)
           214 MiB available memory on the node where the printing process lives
------------------
     ethr =  8.16E-08,  avg # of iterations =  2.0

     negative rho (up, down):  4.588E-02 0.000E+00

     total cpu time spent up to now is        9.1 secs

     End of self-consistent calculation

          k =-0.5000-0.5000-0.5000 ( 57016 PWs)   bands (ev):

   -10.4661  -1.1379

     occupation numbers 
     1.0000   0.0000

     highest occupied, lowest unoccupied level (ev):   -10.4661   -1.1379

!    total energy              =      -2.31696753 Ry
     estimated scf accuracy    <          1.2E-09 Ry

     The total energy is the sum of the following terms:
     one-electron contribution =      -4.24878357 Ry
     hartree contribution      =       2.26144684 Ry
     xc contribution           =      -1.39392189 Ry
     ewald contribution        =       1.06429110 Ry

     convergence has been achieved in   4 iterations

     Forces acting on atoms (cartesian axes, Ry/au):

     atom    1 type  1   force =    -0.02162975    0.00000000    0.00000000
     atom    2 type  1   force =     0.02162975    0.00000000    0.00000000
     The non-local contrib.  to forces
     atom    1 type  1   force =     0.10783925    0.00000000    0.00000000
     atom    2 type  1   force =    -0.10884191    0.00000000    0.00000000
     The ionic contribution  to forces
     atom    1 type  1   force =    -1.03967905   -0.00000000   -0.00000000
     atom    2 type  1   force =     1.03967905   -0.00000000   -0.00000000
     The local contribution  to forces
     atom    1 type  1   force =     0.90964081    0.00000000    0.00000000
     atom    2 type  1   force =    -0.90977186    0.00000000    0.00000000
     The core correction contribution to forces
     atom    1 type  1   force =     0.00000000    0.00000000    0.00000000
     atom    2 type  1   force =     0.00000000    0.00000000    0.00000000
     The Hubbard contrib.    to forces
     atom    1 type  1   force =     0.00000000    0.00000000    0.00000000
     atom    2 type  1   force =     0.00000000    0.00000000    0.00000000
     The SCF correction term to forces
     atom    1 type  1   force =     0.00001869    0.00000000   -0.00000000
     atom    2 type  1   force =     0.00001394    0.00000000    0.00000000

     Total force =     0.030589     Total SCF correction =     0.000023
     Energy error            =      9.2E-03 Ry
     Gradient error          =      2.2E-02 Ry/Bohr

     number of scf cycles    =   2
     number of bfgs steps    =   1

     energy             old  =      -2.3077341706 Ry
     energy             new  =      -2.3169675264 Ry

     CASE: energy            _new < energy            _old

     new trust radius        =       0.0183087287 bohr
     new conv_thr            =       0.0000000022 Ry


ATOMIC_POSITIONS (angstrom)
H             0.0534128215        0.0000000000        0.0000000000
H             0.8065871785        0.0000000000        0.0000000000



     Writing config-only to output data dir ./.save/
     NEW-OLD atomic charge density approx. for the potential

     negative rho (up, down):  4.588E-02 0.000E+00

     total cpu time spent up to now is        9.9 secs

     Self-consistent Calculation

     iteration #  1     ecut=    25.00 Ry     beta= 0.70
     Davidson diagonalization with overlap

---- Real-time Memory Report at c_bands before calling an iterative solver
           356 MiB given to the printing process from OS
             0 MiB allocation reported by mallinfo(arena+hblkhd)
           368 MiB available memory on the node where the printing process lives
------------------
     ethr =  1.00E-06,  avg # of iterations =  3.0

     negative rho (up, down):  4.509E-02 0.000E+00

     total cpu time spent up to now is       10.8 secs

     total energy              =      -2.31768740 Ry
     estimated scf accuracy    <       0.00010780 Ry

     iteration #  2     ecut=    25.00 Ry     beta= 0.70
     Davidson diagonalization with overlap

---- Real-time Memory Report at c_bands before calling an iterative solver
           356 MiB given to the printing process from OS
             0 MiB allocation reported by mallinfo(arena+hblkhd)
           242 MiB available memory on the node where the printing process lives
------------------
     ethr =  5.39E-06,  avg # of iterations =  1.0

     negative rho (up, down):  4.493E-02 0.000E+00

     total cpu time spent up to now is       11.5 secs

     total energy              =      -2.31780871 Ry
     estimated scf accuracy    <       0.00000135 Ry

     iteration #  3     ecut=    25.00 Ry     beta= 0.70
     Davidson diagonalization with overlap

---- Real-time Memory Report at c_bands before calling an iterative solver
           356 MiB given to the printing process from OS
             0 MiB allocation reported by mallinfo(arena+hblkhd)
           228 MiB available memory on the node where the printing process lives
------------------
     ethr =  6.77E-08,  avg # of iterations =  2.0

     negative rho (up, down):  4.491E-02 0.000E+00

     total cpu time spent up to now is       12.2 secs

     total energy              =      -2.31783073 Ry
     estimated scf accuracy    <       0.00000006 Ry

     iteration #  4     ecut=    25.00 Ry     beta= 0.70
     Davidson diagonalization with overlap

---- Real-time Memory Report at c_bands before calling an iterative solver
           356 MiB given to the printing process from OS
             0 MiB allocation reported by mallinfo(arena+hblkhd)
           214 MiB available memory on the node where the printing process lives
------------------
     ethr =  3.22E-09,  avg # of iterations =  2.0

     negative rho (up, down):  4.490E-02 0.000E+00

     total cpu time spent up to now is       12.9 secs

     End of self-consistent calculation

          k =-0.5000-0.5000-0.5000 ( 57016 PWs)   bands (ev):

   -10.3677  -1.1248

     occupation numbers 
     1.0000   0.0000

     highest occupied, lowest unoccupied level (ev):   -10.3677   -1.1248

!    total energy              =      -2.31783038 Ry
     estimated scf accuracy    <          1.6E-09 Ry

     The total energy is the sum of the following terms:
     one-electron contribution =      -4.19873549 Ry
     hartree contribution      =       2.23525868 Ry
     xc contribution           =      -1.38155432 Ry
     ewald contribution        =       1.02720076 Ry

     convergence has been achieved in   4 iterations

     Forces acting on atoms (cartesian axes, Ry/au):

     atom    1 type  1   force =     0.01094188    0.00000000    0.00000000
     atom    2 type  1   force =    -0.01094188    0.00000000    0.00000000
     The non-local contrib.  to forces
     atom    1 type  1   force =     0.10791344    0.00000000    0.00000000
     atom    2 type  1   force =    -0.10847502    0.00000000    0.00000000
     The ionic contribution  to forces
     atom    1 type  1   force =    -0.98683741    0.00000000   -0.00000000
     atom    2 type  1   force =     0.98683741    0.00000000   -0.00000000
     The local contribution  to forces
     atom    1 type  1   force =     0.88950159    0.00000000    0.00000000
     atom    2 type  1   force =    -0.88963798    0.00000000    0.00000000
     The core correction contribution to forces
     atom    1 type  1   force =     0.00000000    0.00000000    0.00000000
     atom    2 type  1   force =     0.00000000    0.00000000    0.00000000
     The Hubbard contrib.    to forces
     atom    1 type  1   force =     0.00000000    0.00000000    0.00000000
     atom    2 type  1   force =     0.00000000    0.00000000    0.00000000
     The SCF correction term to forces
     atom    1 type  1   force =     0.00001236    0.00000000    0.00000000
     atom    2 type  1   force =    -0.00001818    0.00000000   -0.00000000

     Total force =     0.015474     Total SCF correction =     0.000022
     Energy error            =      8.6E-04 Ry
     Gradient error          =      1.1E-02 Ry/Bohr

     number of scf cycles    =   3
     number of bfgs steps    =   2

     energy             old  =      -2.3169675264 Ry
     energy             new  =      -2.3178303752 Ry

     CASE: energy            _new < energy            _old

     new trust radius        =       0.0061505015 bohr
     new conv_thr            =       0.0000000009 Ry


ATOMIC_POSITIONS (angstrom)
H             0.0566675267        0.0000000000        0.0000000000
H             0.8033324733        0.0000000000        0.0000000000



     Writing config-only to output data dir ./.save/
     NEW-OLD atomic charge density approx. for the potential

     negative rho (up, down):  4.490E-02 0.000E+00

     total cpu time spent up to now is       13.7 secs

     Self-consistent Calculation

     iteration #  1     ecut=    25.00 Ry     beta= 0.70
     Davidson diagonalization with overlap

---- Real-time Memory Report at c_bands before calling an iterative solver
           356 MiB given to the printing process from OS
             0 MiB allocation reported by mallinfo(arena+hblkhd)
           368 MiB available memory on the node where the printing process lives
------------------
     ethr =  1.00E-06,  avg # of iterations =  2.0

     negative rho (up, down):  4.518E-02 0.000E+00

     total cpu time spent up to now is       14.6 secs

     total energy              =      -2.31769902 Ry
     estimated scf accuracy    <       0.00001147 Ry

     iteration #  2     ecut=    25.00 Ry     beta= 0.70
     Davidson diagonalization with overlap

---- Real-time Memory Report at c_bands before calling an iterative solver
           356 MiB given to the printing process from OS
             0 MiB allocation reported by mallinfo(arena+hblkhd)
           242 MiB available memory on the node where the printing process lives
------------------
     ethr =  5.73E-07,  avg # of iterations =  1.0

     negative rho (up, down):  4.526E-02 0.000E+00

     total cpu time spent up to now is       15.3 secs

     total energy              =      -2.31764549 Ry
     estimated scf accuracy    <       0.00000032 Ry

     iteration #  3     ecut=    25.00 Ry     beta= 0.70
     Davidson diagonalization with overlap

---- Real-time Memory Report at c_bands before calling an iterative solver
           356 MiB given to the printing process from OS
             0 MiB allocation reported by mallinfo(arena+hblkhd)
           228 MiB available memory on the node where the printing process lives
------------------
     ethr =  1.59E-08,  avg # of iterations =  2.0

     negative rho (up, down):  4.525E-02 0.000E+00

     total cpu time spent up to now is       16.1 secs

     total energy              =      -2.31765045 Ry
     estimated scf accuracy    <       0.00000003 Ry

     iteration #  4     ecut=    25.00 Ry     beta= 0.70
     Davidson diagonalization with overlap

---- Real-time Memory Report at c_bands before calling an iterative solver
           356 MiB given to the printing process from OS
             0 MiB allocation reported by mallinfo(arena+hblkhd)
           214 MiB available memory on the node where the printing process lives
------------------
     ethr =  1.36E-09,  avg # of iterations =  2.0

     negative rho (up, down):  4.526E-02 0.000E+00

     total cpu time spent up to now is       16.8 secs

     total energy              =      -2.31764381 Ry
     estimated scf accuracy    <       0.00000001 Ry

     iteration #  5     ecut=    25.00 Ry     beta= 0.70
     Davidson diagonalization with overlap

---- Real-time Memory Report at c_bands before calling an iterative solver
           357 MiB given to the printing process from OS
             0 MiB allocation reported by mallinfo(arena+hblkhd)
           200 MiB available memory on the node where the printing process lives
------------------
     ethr =  7.35E-10,  avg # of iterations =  2.0

     negative rho (up, down):  4.526E-02 0.000E+00

     total cpu time spent up to now is       17.5 secs

     End of self-consistent calculation

          k =-0.5000-0.5000-0.5000 ( 57016 PWs)   bands (ev):

   -10.3999  -1.1274

     occupation numbers 
     1.0000   0.0000

     highest occupied, lowest unoccupied level (ev):   -10.3999   -1.1274

!    total energy              =      -2.31764565 Ry
     estimated scf accuracy    <          3.2E-11 Ry

     The total energy is the sum of the following terms:
     one-electron contribution =      -4.21550613 Ry
     hartree contribution      =       2.24414791 Ry
     xc contribution           =      -1.38573319 Ry
     ewald contribution        =       1.03944575 Ry

     convergence has been achieved in   5 iterations

     Forces acting on atoms (cartesian axes, Ry/au):

     atom    1 type  1   force =     0.00061212    0.00000000    0.00000000
     atom    2 type  1   force =    -0.00061212    0.00000000    0.00000000
     The non-local contrib.  to forces
     atom    1 type  1   force =     0.10805601    0.00000000    0.00000000
     atom    2 type  1   force =    -0.10869644    0.00000000    0.00000000
     The ionic contribution  to forces
     atom    1 type  1   force =    -1.00413055   -0.00000000   -0.00000000
     atom    2 type  1   force =     1.00413055    0.00000000   -0.00000000
     The local contribution  to forces
     atom    1 type  1   force =     0.89629546    0.00000000    0.00000000
     atom    2 type  1   force =    -0.89642744    0.00000000    0.00000000
     The core correction contribution to forces
     atom    1 type  1   force =     0.00000000    0.00000000    0.00000000
     atom    2 type  1   force =     0.00000000    0.00000000    0.00000000
     The Hubbard contrib.    to forces
     atom    1 type  1   force =     0.00000000    0.00000000    0.00000000
     atom    2 type  1   force =     0.00000000    0.00000000    0.00000000
     The SCF correction term to forces
     atom    1 type  1   force =     0.00001393    0.00000000   -0.00000000
     atom    2 type  1   force =     0.00000396    0.00000000    0.00000000

     Total force =     0.000866     Total SCF correction =     0.000014
     Energy error            =      1.8E-04 Ry
     Gradient error          =      6.1E-04 Ry/Bohr

     number of scf cycles    =   4
     number of bfgs steps    =   3

     energy             old  =      -2.3178303752 Ry
     energy             new  =      -2.3176456539 Ry

     CASE: energy            _new > energy            _old

     new trust radius        =       0.0012962546 bohr
     new conv_thr            =       0.0000000009 Ry


ATOMIC_POSITIONS (angstrom)
H             0.0540987699        0.0000000000        0.0000000000
H             0.8059012301        0.0000000000        0.0000000000



     Writing config-only to output data dir ./.save/
     NEW-OLD atomic charge density approx. for the potential

     negative rho (up, down):  4.526E-02 0.000E+00

     total cpu time spent up to now is       18.3 secs

     Self-consistent Calculation

     iteration #  1     ecut=    25.00 Ry     beta= 0.70
     Davidson diagonalization with overlap

---- Real-time Memory Report at c_bands before calling an iterative solver
           357 MiB given to the printing process from OS
             0 MiB allocation reported by mallinfo(arena+hblkhd)
           368 MiB available memory on the node where the printing process lives
------------------
     ethr =  1.00E-06,  avg # of iterations =  2.0

     negative rho (up, down):  4.505E-02 0.000E+00

     total cpu time spent up to now is       19.1 secs

     total energy              =      -2.31774898 Ry
     estimated scf accuracy    <       0.00000699 Ry

     iteration #  2     ecut=    25.00 Ry     beta= 0.70
     Davidson diagonalization with overlap

---- Real-time Memory Report at c_bands before calling an iterative solver
           357 MiB given to the printing process from OS
             0 MiB allocation reported by mallinfo(arena+hblkhd)
           243 MiB available memory on the node where the printing process lives
------------------
     ethr =  3.50E-07,  avg # of iterations =  1.0

     negative rho (up, down):  4.499E-02 0.000E+00

     total cpu time spent up to now is       19.8 secs

     total energy              =      -2.31779624 Ry
     estimated scf accuracy    <       0.00000020 Ry

     iteration #  3     ecut=    25.00 Ry     beta= 0.70
     Davidson diagonalization with overlap

---- Real-time Memory Report at c_bands before calling an iterative solver
           357 MiB given to the printing process from OS
             0 MiB allocation reported by mallinfo(arena+hblkhd)
           228 MiB available memory on the node where the printing process lives
------------------
     ethr =  9.77E-09,  avg # of iterations =  2.0

     negative rho (up, down):  4.499E-02 0.000E+00

     total cpu time spent up to now is       20.6 secs

     total energy              =      -2.31779520 Ry
     estimated scf accuracy    <       0.00000002 Ry

     iteration #  4     ecut=    25.00 Ry     beta= 0.70
     Davidson diagonalization with overlap

---- Real-time Memory Report at c_bands before calling an iterative solver
           357 MiB given to the printing process from OS
             0 MiB allocation reported by mallinfo(arena+hblkhd)
           214 MiB available memory on the node where the printing process lives
------------------
     ethr =  1.02E-09,  avg # of iterations =  3.0

     negative rho (up, down):  4.499E-02 0.000E+00

     total cpu time spent up to now is       21.4 secs

     total energy              =      -2.31779847 Ry
     estimated scf accuracy    <       0.00000002 Ry

     iteration #  5     ecut=    25.00 Ry     beta= 0.70
     Davidson diagonalization with overlap

---- Real-time Memory Report at c_bands before calling an iterative solver
           357 MiB given to the printing process from OS
             0 MiB allocation reported by mallinfo(arena+hblkhd)
           200 MiB available memory on the node where the printing process lives
------------------
     ethr =  8.96E-10,  avg # of iterations =  2.0

     negative rho (up, down):  4.498E-02 0.000E+00

     total cpu time spent up to now is       22.1 secs

     End of self-consistent calculation

          k =-0.5000-0.5000-0.5000 ( 57016 PWs)   bands (ev):

   -10.3743  -1.1278

     occupation numbers 
     1.0000   0.0000

     highest occupied, lowest unoccupied level (ev):   -10.3743   -1.1278

!    total energy              =      -2.31780133 Ry
     estimated scf accuracy    <          7.2E-10 Ry

     The total energy is the sum of the following terms:
     one-electron contribution =      -4.20227874 Ry
     hartree contribution      =       2.23716310 Ry
     xc contribution           =      -1.38244951 Ry
     ewald contribution        =       1.02976382 Ry

     convergence has been achieved in   5 iterations

     Forces acting on atoms (cartesian axes, Ry/au):

     atom    1 type  1   force =     0.00884734    0.00000000    0.00000000
     atom    2 type  1   force =    -0.00884734    0.00000000    0.00000000
     The non-local contrib.  to forces
     atom    1 type  1   force =     0.10787204    0.00000000    0.00000000
     atom    2 type  1   force =    -0.10860646    0.00000000    0.00000000
     The ionic contribution  to forces
     atom    1 type  1   force =    -0.99044472   -0.00000000   -0.00000000
     atom    2 type  1   force =     0.99044472   -0.00000000   -0.00000000
     The local contribution  to forces
     atom    1 type  1   force =     0.89093994    0.00000000    0.00000000
     atom    2 type  1   force =    -0.89107224    0.00000000    0.00000000
     The core correction contribution to forces
     atom    1 type  1   force =     0.00000000    0.00000000    0.00000000
     atom    2 type  1   force =     0.00000000    0.00000000    0.00000000
     The Hubbard contrib.    to forces
     atom    1 type  1   force =     0.00000000    0.00000000    0.00000000
     atom    2 type  1   force =     0.00000000    0.00000000    0.00000000
     The SCF correction term to forces
     atom    1 type  1   force =    -0.00000530    0.00000000   -0.00000000
     atom    2 type  1   force =    -0.00009874   -0.00000000    0.00000000

     Total force =     0.012512     Total SCF correction =     0.000099
     Energy error            =      2.9E-05 Ry
     Gradient error          =      8.8E-03 Ry/Bohr

     number of scf cycles    =   5
     number of bfgs steps    =   3

     energy             old  =      -2.3178303752 Ry
     energy             new  =      -2.3178013258 Ry

     CASE: energy            _new > energy            _old

     new trust radius        =       0.0003202116 bohr
     new conv_thr            =       0.0000000009 Ry


ATOMIC_POSITIONS (angstrom)
H             0.0535822702        0.0000000000        0.0000000000
H             0.8064177298        0.0000000000        0.0000000000



     Writing config-only to output data dir ./.save/
     NEW-OLD atomic charge density approx. for the potential

     negative rho (up, down):  4.498E-02 0.000E+00

     total cpu time spent up to now is       22.9 secs

     Self-consistent Calculation

     iteration #  1     ecut=    25.00 Ry     beta= 0.70
     Davidson diagonalization with overlap

---- Real-time Memory Report at c_bands before calling an iterative solver
           357 MiB given to the printing process from OS
             0 MiB allocation reported by mallinfo(arena+hblkhd)
           368 MiB available memory on the node where the printing process lives
------------------
     ethr =  1.00E-06,  avg # of iterations =  2.0

     Threshold (ethr) on eigenvalues was too large:
     Diagonalizing with lowered threshold

     Davidson diagonalization with overlap

---- Real-time Memory Report at c_bands before calling an iterative solver
           357 MiB given to the printing process from OS
             0 MiB allocation reported by mallinfo(arena+hblkhd)
           368 MiB available memory on the node where the printing process lives
------------------
     ethr =  1.29E-08,  avg # of iterations =  1.0

     negative rho (up, down):  4.494E-02 0.000E+00

     total cpu time spent up to now is       23.9 secs

     total energy              =      -2.31780915 Ry
     estimated scf accuracy    <       0.00000028 Ry

     iteration #  2     ecut=    25.00 Ry     beta= 0.70
     Davidson diagonalization with overlap

---- Real-time Memory Report at c_bands before calling an iterative solver
           357 MiB given to the printing process from OS
             0 MiB allocation reported by mallinfo(arena+hblkhd)
           243 MiB available memory on the node where the printing process lives
------------------
     ethr =  1.39E-08,  avg # of iterations =  1.0

     negative rho (up, down):  4.493E-02 0.000E+00

     total cpu time spent up to now is       24.6 secs

     total energy              =      -2.31781850 Ry
     estimated scf accuracy    <          4.2E-09 Ry

     iteration #  3     ecut=    25.00 Ry     beta= 0.70
     Davidson diagonalization with overlap

---- Real-time Memory Report at c_bands before calling an iterative solver
           357 MiB given to the printing process from OS
             0 MiB allocation reported by mallinfo(arena+hblkhd)
           228 MiB available memory on the node where the printing process lives
------------------
     ethr =  2.09E-10,  avg # of iterations =  2.0

     negative rho (up, down):  4.493E-02 0.000E+00

     total cpu time spent up to now is       25.3 secs

     End of self-consistent calculation

          k =-0.5000-0.5000-0.5000 ( 57016 PWs)   bands (ev):

   -10.3694  -1.1259

     occupation numbers 
     1.0000   0.0000

     highest occupied, lowest unoccupied level (ev):   -10.3694   -1.1259

!    total energy              =      -2.31782039 Ry
     estimated scf accuracy    <          1.8E-10 Ry

     The total energy is the sum of the following terms:
     one-electron contribution =      -4.19965430 Ry
     hartree contribution      =       2.23581218 Ry
     xc contribution           =      -1.38181130 Ry
     ewald contribution        =       1.02783304 Ry

     convergence has been achieved in   3 iterations

     Forces acting on atoms (cartesian axes, Ry/au):

     atom    1 type  1   force =     0.01042493    0.00000000    0.00000000
     atom    2 type  1   force =    -0.01042493    0.00000000    0.00000000
     The non-local contrib.  to forces
     atom    1 type  1   force =     0.10788434    0.00000000    0.00000000
     atom    2 type  1   force =    -0.10851913    0.00000000    0.00000000
     The ionic contribution  to forces
     atom    1 type  1   force =    -0.98772668    0.00000000   -0.00000000
     atom    2 type  1   force =     0.98772668   -0.00000000   -0.00000000
     The local contribution  to forces
     atom    1 type  1   force =     0.88988632    0.00000000    0.00000000
     atom    2 type  1   force =    -0.89002469    0.00000000    0.00000000
     The core correction contribution to forces
     atom    1 type  1   force =     0.00000000    0.00000000    0.00000000
     atom    2 type  1   force =     0.00000000    0.00000000    0.00000000
     The Hubbard contrib.    to forces
     atom    1 type  1   force =     0.00000000    0.00000000    0.00000000
     atom    2 type  1   force =     0.00000000    0.00000000    0.00000000
     The SCF correction term to forces
     atom    1 type  1   force =    -0.00000596    0.00000000   -0.00000000
     atom    2 type  1   force =     0.00000530   -0.00000000    0.00000000

     Total force =     0.014743     Total SCF correction =     0.000008
     Energy error            =      1.0E-05 Ry
     Gradient error          =      1.0E-02 Ry/Bohr

     number of scf cycles    =   6
     number of bfgs steps    =   3

     energy             old  =      -2.3178303752 Ry
     energy             new  =      -2.3178203891 Ry

     CASE: energy            _new > energy            _old

     new trust radius        =       0.0000660208 bohr

     trust_radius < trust_radius_min

     resetting bfgs history

     new conv_thr            =       0.0000000009 Ry


ATOMIC_POSITIONS (angstrom)
H             0.0592030134        0.0000000000        0.0000000000
H             0.8007969866        0.0000000000        0.0000000000



     Writing config-only to output data dir ./.save/
     NEW-OLD atomic charge density approx. for the potential

     negative rho (up, down):  4.491E-02 0.000E+00

     total cpu time spent up to now is       26.1 secs

     Self-consistent Calculation

     iteration #  1     ecut=    25.00 Ry     beta= 0.70
     Davidson diagonalization with overlap

---- Real-time Memory Report at c_bands before calling an iterative solver
           357 MiB given to the printing process from OS
             0 MiB allocation reported by mallinfo(arena+hblkhd)
           368 MiB available memory on the node where the printing process lives
------------------
     ethr =  1.00E-06,  avg # of iterations =  3.0

     negative rho (up, down):  4.540E-02 0.000E+00

     total cpu time spent up to now is       27.0 secs

     total energy              =      -2.31751014 Ry
     estimated scf accuracy    <       0.00003593 Ry

     iteration #  2     ecut=    25.00 Ry     beta= 0.70
     Davidson diagonalization with overlap

---- Real-time Memory Report at c_bands before calling an iterative solver
           357 MiB given to the printing process from OS
             0 MiB allocation reported by mallinfo(arena+hblkhd)
           243 MiB available memory on the node where the printing process lives
------------------
     ethr =  1.80E-06,  avg # of iterations =  1.0

     negative rho (up, down):  4.550E-02 0.000E+00

     total cpu time spent up to now is       27.7 secs

     total energy              =      -2.31744592 Ry
     estimated scf accuracy    <       0.00000044 Ry

     iteration #  3     ecut=    25.00 Ry     beta= 0.70
     Davidson diagonalization with overlap

---- Real-time Memory Report at c_bands before calling an iterative solver
           357 MiB given to the printing process from OS
             0 MiB allocation reported by mallinfo(arena+hblkhd)
           228 MiB available memory on the node where the printing process lives
------------------
     ethr =  2.20E-08,  avg # of iterations =  2.0

     negative rho (up, down):  4.552E-02 0.000E+00

     total cpu time spent up to now is       28.4 secs

     total energy              =      -2.31743419 Ry
     estimated scf accuracy    <       0.00000002 Ry

     iteration #  4     ecut=    25.00 Ry     beta= 0.70
     Davidson diagonalization with overlap

---- Real-time Memory Report at c_bands before calling an iterative solver
           357 MiB given to the printing process from OS
             0 MiB allocation reported by mallinfo(arena+hblkhd)
           214 MiB available memory on the node where the printing process lives
------------------
     ethr =  9.22E-10,  avg # of iterations =  2.0

     negative rho (up, down):  4.552E-02 0.000E+00

     total cpu time spent up to now is       29.1 secs

     End of self-consistent calculation

          k =-0.5000-0.5000-0.5000 ( 57016 PWs)   bands (ev):

   -10.4259  -1.1328

     occupation numbers 
     1.0000   0.0000

     highest occupied, lowest unoccupied level (ev):   -10.4259   -1.1328

!    total energy              =      -2.31742896 Ry
     estimated scf accuracy    <          5.5E-10 Ry

     The total energy is the sum of the following terms:
     one-electron contribution =      -4.22858383 Ry
     hartree contribution      =       2.25097810 Ry
     xc contribution           =      -1.38895715 Ry
     ewald contribution        =       1.04913393 Ry

     convergence has been achieved in   4 iterations

     Forces acting on atoms (cartesian axes, Ry/au):

     atom    1 type  1   force =    -0.00786034    0.00000000    0.00000000
     atom    2 type  1   force =     0.00786034    0.00000000    0.00000000
     The non-local contrib.  to forces
     atom    1 type  1   force =     0.10798989    0.00000000    0.00000000
     atom    2 type  1   force =    -0.10890736    0.00000000    0.00000000
     The ionic contribution  to forces
     atom    1 type  1   force =    -1.01791894    0.00000000   -0.00000000
     atom    2 type  1   force =     1.01791894   -0.00000000   -0.00000000
     The local contribution  to forces
     atom    1 type  1   force =     0.90156072    0.00000000    0.00000000
     atom    2 type  1   force =    -0.90168823    0.00000000    0.00000000
     The core correction contribution to forces
     atom    1 type  1   force =     0.00000000    0.00000000    0.00000000
     atom    2 type  1   force =     0.00000000    0.00000000    0.00000000
     The Hubbard contrib.    to forces
     atom    1 type  1   force =     0.00000000    0.00000000    0.00000000
     atom    2 type  1   force =     0.00000000    0.00000000    0.00000000
     The SCF correction term to forces
     atom    1 type  1   force =    -0.00002363   -0.00000000    0.00000000
     atom    2 type  1   force =     0.00000538   -0.00000000    0.00000000

     Total force =     0.011116     Total SCF correction =     0.000024
     Energy error            =      4.0E-04 Ry
     Gradient error          =      7.9E-03 Ry/Bohr

     number of scf cycles    =   7
     number of bfgs steps    =   3

     energy             old  =      -2.3178303752 Ry
     energy             new  =      -2.3174289569 Ry

     CASE: energy            _new > energy            _old

     new trust radius        =       0.0020441233 bohr
     new conv_thr            =       0.0000000009 Ry


ATOMIC_POSITIONS (angstrom)
H             0.0544945250        0.0000000000        0.0000000000
H             0.8055054750        0.0000000000        0.0000000000



     Writing config-only to output data dir ./.save/
     NEW-OLD atomic charge density approx. for the potential

     negative rho (up, down):  4.552E-02 0.000E+00

     total cpu time spent up to now is       29.9 secs

     Self-consistent Calculation

     iteration #  1     ecut=    25.00 Ry     beta= 0.70
     Davidson diagonalization with overlap

---- Real-time Memory Report at c_bands before calling an iterative solver
           357 MiB given to the printing process from OS
             0 MiB allocation reported by mallinfo(arena+hblkhd)
           368 MiB available memory on the node where the printing process lives
------------------
     ethr =  1.00E-06,  avg # of iterations =  3.0

     negative rho (up, down):  4.512E-02 0.000E+00

     total cpu time spent up to now is       30.8 secs

     total energy              =      -2.31770348 Ry
     estimated scf accuracy    <       0.00002559 Ry

     iteration #  2     ecut=    25.00 Ry     beta= 0.70
     Davidson diagonalization with overlap

---- Real-time Memory Report at c_bands before calling an iterative solver
           357 MiB given to the printing process from OS
             0 MiB allocation reported by mallinfo(arena+hblkhd)
           243 MiB available memory on the node where the printing process lives
------------------
     ethr =  1.28E-06,  avg # of iterations =  2.0

     negative rho (up, down):  4.505E-02 0.000E+00

     total cpu time spent up to now is       31.5 secs

     total energy              =      -2.31776197 Ry
     estimated scf accuracy    <       0.00000029 Ry

     iteration #  3     ecut=    25.00 Ry     beta= 0.70
     Davidson diagonalization with overlap

---- Real-time Memory Report at c_bands before calling an iterative solver
           357 MiB given to the printing process from OS
             0 MiB allocation reported by mallinfo(arena+hblkhd)
           228 MiB available memory on the node where the printing process lives
------------------
     ethr =  1.45E-08,  avg # of iterations =  2.0

     negative rho (up, down):  4.503E-02 0.000E+00

     total cpu time spent up to now is       32.3 secs

     total energy              =      -2.31777938 Ry
     estimated scf accuracy    <       0.00000001 Ry

     iteration #  4     ecut=    25.00 Ry     beta= 0.70
     Davidson diagonalization with overlap

---- Real-time Memory Report at c_bands before calling an iterative solver
           357 MiB given to the printing process from OS
             0 MiB allocation reported by mallinfo(arena+hblkhd)
           214 MiB available memory on the node where the printing process lives
------------------
     ethr =  5.71E-10,  avg # of iterations =  3.0

     negative rho (up, down):  4.503E-02 0.000E+00

     total cpu time spent up to now is       33.0 secs

     End of self-consistent calculation

          k =-0.5000-0.5000-0.5000 ( 57016 PWs)   bands (ev):

   -10.3783  -1.1258

     occupation numbers 
     1.0000   0.0000

     highest occupied, lowest unoccupied level (ev):   -10.3783   -1.1258

!    total energy              =      -2.31777457 Ry
     estimated scf accuracy    <          3.9E-10 Ry

     The total energy is the sum of the following terms:
     one-electron contribution =      -4.20435160 Ry
     hartree contribution      =       2.23831122 Ry
     xc contribution           =      -1.38298102 Ry
     ewald contribution        =       1.03124683 Ry

     convergence has been achieved in   4 iterations

     Forces acting on atoms (cartesian axes, Ry/au):

     atom    1 type  1   force =     0.00751788    0.00000000    0.00000000
     atom    2 type  1   force =    -0.00751788    0.00000000    0.00000000
     The non-local contrib.  to forces
     atom    1 type  1   force =     0.10787582    0.00000000    0.00000000
     atom    2 type  1   force =    -0.10858151    0.00000000    0.00000000
     The ionic contribution  to forces
     atom    1 type  1   force =    -0.99253494   -0.00000000   -0.00000000
     atom    2 type  1   force =     0.99253494   -0.00000000   -0.00000000
     The local contribution  to forces
     atom    1 type  1   force =     0.89178731    0.00000000    0.00000000
     atom    2 type  1   force =    -0.89193259    0.00000000    0.00000000
     The core correction contribution to forces
     atom    1 type  1   force =     0.00000000    0.00000000    0.00000000
     atom    2 type  1   force =     0.00000000    0.00000000    0.00000000
     The Hubbard contrib.    to forces
     atom    1 type  1   force =     0.00000000    0.00000000    0.00000000
     atom    2 type  1   force =     0.00000000    0.00000000    0.00000000
     The SCF correction term to forces
     atom    1 type  1   force =     0.00002601    0.00000000   -0.00000000
     atom    2 type  1   force =     0.00009760    0.00000000    0.00000000

     Total force =     0.010632     Total SCF correction =     0.000101
     Energy error            =      5.6E-05 Ry
     Gradient error          =      7.5E-03 Ry/Bohr

     number of scf cycles    =   8
     number of bfgs steps    =   3

     energy             old  =      -2.3178303752 Ry
     energy             new  =      -2.3177745737 Ry

     CASE: energy            _new > energy            _old

     new trust radius        =       0.0004547685 bohr
     new conv_thr            =       0.0000000009 Ry


ATOMIC_POSITIONS (angstrom)
H             0.0536534747        0.0000000000        0.0000000000
H             0.8063465253        0.0000000000        0.0000000000



     Writing config-only to output data dir ./.save/
     NEW-OLD atomic charge density approx. for the potential

     negative rho (up, down):  4.503E-02 0.000E+00

     total cpu time spent up to now is       33.8 secs

     Self-consistent Calculation

     iteration #  1     ecut=    25.00 Ry     beta= 0.70
     Davidson diagonalization with overlap

---- Real-time Memory Report at c_bands before calling an iterative solver
           357 MiB given to the printing process from OS
             0 MiB allocation reported by mallinfo(arena+hblkhd)
           368 MiB available memory on the node where the printing process lives
------------------
     ethr =  1.00E-06,  avg # of iterations =  2.0

     Threshold (ethr) on eigenvalues was too large:
     Diagonalizing with lowered threshold

     Davidson diagonalization with overlap

---- Real-time Memory Report at c_bands before calling an iterative solver
           357 MiB given to the printing process from OS
             0 MiB allocation reported by mallinfo(arena+hblkhd)
           368 MiB available memory on the node where the printing process lives
------------------
     ethr =  3.85E-08,  avg # of iterations =  1.0

     negative rho (up, down):  4.496E-02 0.000E+00

     total cpu time spent up to now is       34.8 secs

     total energy              =      -2.31779891 Ry
     estimated scf accuracy    <       0.00000082 Ry

     iteration #  2     ecut=    25.00 Ry     beta= 0.70
     Davidson diagonalization with overlap

---- Real-time Memory Report at c_bands before calling an iterative solver
           357 MiB given to the printing process from OS
             0 MiB allocation reported by mallinfo(arena+hblkhd)
           243 MiB available memory on the node where the printing process lives
------------------
     ethr =  4.09E-08,  avg # of iterations =  1.0

     negative rho (up, down):  4.494E-02 0.000E+00

     total cpu time spent up to now is       35.6 secs

     total energy              =      -2.31780703 Ry
     estimated scf accuracy    <       0.00000001 Ry

     iteration #  3     ecut=    25.00 Ry     beta= 0.70
     Davidson diagonalization with overlap

---- Real-time Memory Report at c_bands before calling an iterative solver
           357 MiB given to the printing process from OS
             0 MiB allocation reported by mallinfo(arena+hblkhd)
           228 MiB available memory on the node where the printing process lives
------------------
     ethr =  6.32E-10,  avg # of iterations =  2.0

     negative rho (up, down):  4.494E-02 0.000E+00

     total cpu time spent up to now is       36.3 secs

     End of self-consistent calculation

          k =-0.5000-0.5000-0.5000 ( 57016 PWs)   bands (ev):

   -10.3702  -1.1246

     occupation numbers 
     1.0000   0.0000

     highest occupied, lowest unoccupied level (ev):   -10.3702   -1.1246

!    total energy              =      -2.31780728 Ry
     estimated scf accuracy    <          8.4E-10 Ry

     The total energy is the sum of the following terms:
     one-electron contribution =      -4.20003119 Ry
     hartree contribution      =       2.23602614 Ry
     xc contribution           =      -1.38190113 Ry
     ewald contribution        =       1.02809890 Ry

     convergence has been achieved in   3 iterations

     Forces acting on atoms (cartesian axes, Ry/au):

     atom    1 type  1   force =     0.01020721    0.00000000    0.00000000
     atom    2 type  1   force =    -0.01020721    0.00000000    0.00000000
     The non-local contrib.  to forces
     atom    1 type  1   force =     0.10787022    0.00000000    0.00000000
     atom    2 type  1   force =    -0.10854608    0.00000000    0.00000000
     The ionic contribution  to forces
     atom    1 type  1   force =    -0.98810073    0.00000000   -0.00000000
     atom    2 type  1   force =     0.98810073    0.00000000   -0.00000000
     The local contribution  to forces
     atom    1 type  1   force =     0.89003696    0.00000000    0.00000000
     atom    2 type  1   force =    -0.89018776    0.00000000    0.00000000
     The core correction contribution to forces
     atom    1 type  1   force =     0.00000000    0.00000000    0.00000000
     atom    2 type  1   force =     0.00000000    0.00000000    0.00000000
     The Hubbard contrib.    to forces
     atom    1 type  1   force =     0.00000000    0.00000000    0.00000000
     atom    2 type  1   force =     0.00000000    0.00000000    0.00000000
     The SCF correction term to forces
     atom    1 type  1   force =    -0.00001549   -0.00000000   -0.00000000
     atom    2 type  1   force =     0.00000966    0.00000000    0.00000000

     Total force =     0.014435     Total SCF correction =     0.000018
     Energy error            =      2.3E-05 Ry
     Gradient error          =      1.0E-02 Ry/Bohr

     number of scf cycles    =   9
     number of bfgs steps    =   3

     energy             old  =      -2.3178303752 Ry
     energy             new  =      -2.3178072756 Ry

     CASE: energy            _new > energy            _old

     new trust radius        =       0.0000684667 bohr

     trust_radius < trust_radius_min

     resetting bfgs history

     new conv_thr            =       0.0000000009 Ry


ATOMIC_POSITIONS (angstrom)
H             0.0592030134        0.0000000000        0.0000000000
H             0.8007969866        0.0000000000        0.0000000000



     Writing config-only to output data dir ./.save/
     NEW-OLD atomic charge density approx. for the potential

     negative rho (up, down):  4.492E-02 0.000E+00

     total cpu time spent up to now is       37.1 secs

     Self-consistent Calculation

     iteration #  1     ecut=    25.00 Ry     beta= 0.70
     Davidson diagonalization with overlap

---- Real-time Memory Report at c_bands before calling an iterative solver
           357 MiB given to the printing process from OS
             0 MiB allocation reported by mallinfo(arena+hblkhd)
           368 MiB available memory on the node where the printing process lives
------------------
     ethr =  1.00E-06,  avg # of iterations =  3.0

     negative rho (up, down):  4.540E-02 0.000E+00

     total cpu time spent up to now is       37.9 secs

     total energy              =      -2.31750904 Ry
     estimated scf accuracy    <       0.00003488 Ry

     iteration #  2     ecut=    25.00 Ry     beta= 0.70
     Davidson diagonalization with overlap

---- Real-time Memory Report at c_bands before calling an iterative solver
           357 MiB given to the printing process from OS
             0 MiB allocation reported by mallinfo(arena+hblkhd)
           243 MiB available memory on the node where the printing process lives
------------------
     ethr =  1.74E-06,  avg # of iterations =  1.0

     negative rho (up, down):  4.550E-02 0.000E+00

     total cpu time spent up to now is       38.6 secs

     total energy              =      -2.31744400 Ry
     estimated scf accuracy    <       0.00000045 Ry

     iteration #  3     ecut=    25.00 Ry     beta= 0.70
     Davidson diagonalization with overlap

---- Real-time Memory Report at c_bands before calling an iterative solver
           357 MiB given to the printing process from OS
             0 MiB allocation reported by mallinfo(arena+hblkhd)
           228 MiB available memory on the node where the printing process lives
------------------
     ethr =  2.23E-08,  avg # of iterations =  2.0

     negative rho (up, down):  4.551E-02 0.000E+00

     total cpu time spent up to now is       39.4 secs

     total energy              =      -2.31743489 Ry
     estimated scf accuracy    <       0.00000002 Ry

     iteration #  4     ecut=    25.00 Ry     beta= 0.70
     Davidson diagonalization with overlap

---- Real-time Memory Report at c_bands before calling an iterative solver
           357 MiB given to the printing process from OS
             0 MiB allocation reported by mallinfo(arena+hblkhd)
           214 MiB available memory on the node where the printing process lives
------------------
     ethr =  1.09E-09,  avg # of iterations =  3.0

     negative rho (up, down):  4.552E-02 0.000E+00

     total cpu time spent up to now is       40.2 secs

     total energy              =      -2.31743212 Ry
     estimated scf accuracy    <          2.6E-09 Ry

     iteration #  5     ecut=    25.00 Ry     beta= 0.70
     Davidson diagonalization with overlap

---- Real-time Memory Report at c_bands before calling an iterative solver
           357 MiB given to the printing process from OS
             0 MiB allocation reported by mallinfo(arena+hblkhd)
           201 MiB available memory on the node where the printing process lives
------------------
     ethr =  1.31E-10,  avg # of iterations =  3.0

     negative rho (up, down):  4.552E-02 0.000E+00

     total cpu time spent up to now is       41.0 secs

     End of self-consistent calculation

          k =-0.5000-0.5000-0.5000 ( 57016 PWs)   bands (ev):

   -10.4257  -1.1333

     occupation numbers 
     1.0000   0.0000

     highest occupied, lowest unoccupied level (ev):   -10.4257   -1.1333

!    total energy              =      -2.31743109 Ry
     estimated scf accuracy    <          2.8E-11 Ry

     The total energy is the sum of the following terms:
     one-electron contribution =      -4.22857227 Ry
     hartree contribution      =       2.25095596 Ry
     xc contribution           =      -1.38894871 Ry
     ewald contribution        =       1.04913393 Ry

     convergence has been achieved in   5 iterations

     Forces acting on atoms (cartesian axes, Ry/au):

     atom    1 type  1   force =    -0.00784862    0.00000000    0.00000000
     atom    2 type  1   force =     0.00784862    0.00000000    0.00000000
     The non-local contrib.  to forces
     atom    1 type  1   force =     0.10801550    0.00000000    0.00000000
     atom    2 type  1   force =    -0.10888837    0.00000000    0.00000000
     The ionic contribution  to forces
     atom    1 type  1   force =    -1.01791894    0.00000000   -0.00000000
     atom    2 type  1   force =     1.01791894   -0.00000000   -0.00000000
     The local contribution  to forces
     atom    1 type  1   force =     0.90154989    0.00000000    0.00000000
     atom    2 type  1   force =    -0.90167574    0.00000000    0.00000000
     The core correction contribution to forces
     atom    1 type  1   force =     0.00000000    0.00000000    0.00000000
     atom    2 type  1   force =     0.00000000    0.00000000    0.00000000
     The Hubbard contrib.    to forces
     atom    1 type  1   force =     0.00000000    0.00000000    0.00000000
     atom    2 type  1   force =     0.00000000    0.00000000    0.00000000
     The SCF correction term to forces
     atom    1 type  1   force =     0.00001466    0.00000000    0.00000000
     atom    2 type  1   force =     0.00000351    0.00000000    0.00000000

     Total force =     0.011100     Total SCF correction =     0.000015
     Energy error            =      4.0E-04 Ry
     Gradient error          =      7.8E-03 Ry/Bohr

     number of scf cycles    =  10
     number of bfgs steps    =   3

     energy             old  =      -2.3178303752 Ry
     energy             new  =      -2.3174310943 Ry

     CASE: energy            _new > energy            _old

     new trust radius        =       0.0020509636 bohr
     new conv_thr            =       0.0000000009 Ry


ATOMIC_POSITIONS (angstrom)
H             0.0544981447        0.0000000000        0.0000000000
H             0.8055018553        0.0000000000        0.0000000000



     Writing config-only to output data dir ./.save/
     NEW-OLD atomic charge density approx. for the potential

     negative rho (up, down):  4.552E-02 0.000E+00

     total cpu time spent up to now is       41.8 secs

     Self-consistent Calculation

     iteration #  1     ecut=    25.00 Ry     beta= 0.70
     Davidson diagonalization with overlap

---- Real-time Memory Report at c_bands before calling an iterative solver
           357 MiB given to the printing process from OS
             0 MiB allocation reported by mallinfo(arena+hblkhd)
           368 MiB available memory on the node where the printing process lives
------------------
     ethr =  1.00E-06,  avg # of iterations =  3.0

     negative rho (up, down):  4.512E-02 0.000E+00

     total cpu time spent up to now is       42.6 secs

     total energy              =      -2.31770142 Ry
     estimated scf accuracy    <       0.00002541 Ry

     iteration #  2     ecut=    25.00 Ry     beta= 0.70
     Davidson diagonalization with overlap

---- Real-time Memory Report at c_bands before calling an iterative solver
           357 MiB given to the printing process from OS
             0 MiB allocation reported by mallinfo(arena+hblkhd)
           243 MiB available memory on the node where the printing process lives
------------------
     ethr =  1.27E-06,  avg # of iterations =  2.0

     negative rho (up, down):  4.505E-02 0.000E+00

     total cpu time spent up to now is       43.3 secs

     total energy              =      -2.31776150 Ry
     estimated scf accuracy    <       0.00000029 Ry

     iteration #  3     ecut=    25.00 Ry     beta= 0.70
     Davidson diagonalization with overlap

---- Real-time Memory Report at c_bands before calling an iterative solver
           357 MiB given to the printing process from OS
             0 MiB allocation reported by mallinfo(arena+hblkhd)
           228 MiB available memory on the node where the printing process lives
------------------
     ethr =  1.45E-08,  avg # of iterations =  2.0

     negative rho (up, down):  4.503E-02 0.000E+00

     total cpu time spent up to now is       44.1 secs

     total energy              =      -2.31777677 Ry
     estimated scf accuracy    <       0.00000001 Ry

     iteration #  4     ecut=    25.00 Ry     beta= 0.70
     Davidson diagonalization with overlap

---- Real-time Memory Report at c_bands before calling an iterative solver
           357 MiB given to the printing process from OS
             0 MiB allocation reported by mallinfo(arena+hblkhd)
           214 MiB available memory on the node where the printing process lives
------------------
     ethr =  5.62E-10,  avg # of iterations =  3.0

     negative rho (up, down):  4.503E-02 0.000E+00

     total cpu time spent up to now is       44.8 secs

     End of self-consistent calculation

          k =-0.5000-0.5000-0.5000 ( 57016 PWs)   bands (ev):

   -10.3784  -1.1258

     occupation numbers 
     1.0000   0.0000

     highest occupied, lowest unoccupied level (ev):   -10.3784   -1.1258

!    total energy              =      -2.31777480 Ry
     estimated scf accuracy    <          3.7E-10 Ry

     The total energy is the sum of the following terms:
     one-electron contribution =      -4.20435364 Ry
     hartree contribution      =       2.23829037 Ry
     xc contribution           =      -1.38297194 Ry
     ewald contribution        =       1.03126041 Ry

     convergence has been achieved in   4 iterations

     Forces acting on atoms (cartesian axes, Ry/au):

     atom    1 type  1   force =     0.00754763    0.00000000    0.00000000
     atom    2 type  1   force =    -0.00754763    0.00000000    0.00000000
     The non-local contrib.  to forces
     atom    1 type  1   force =     0.10788887    0.00000000    0.00000000
     atom    2 type  1   force =    -0.10859232    0.00000000    0.00000000
     The ionic contribution  to forces
     atom    1 type  1   force =    -0.99255409   -0.00000000   -0.00000000
     atom    2 type  1   force =     0.99255409   -0.00000000   -0.00000000
     The local contribution  to forces
     atom    1 type  1   force =     0.89177619    0.00000000    0.00000000
     atom    2 type  1   force =    -0.89193404    0.00000000    0.00000000
     The core correction contribution to forces
     atom    1 type  1   force =     0.00000000    0.00000000    0.00000000
     atom    2 type  1   force =     0.00000000    0.00000000    0.00000000
     The Hubbard contrib.    to forces
     atom    1 type  1   force =     0.00000000    0.00000000    0.00000000
     atom    2 type  1   force =     0.00000000    0.00000000    0.00000000
     The SCF correction term to forces
     atom    1 type  1   force =     0.00009394    0.00000000   -0.00000000
     atom    2 type  1   force =     0.00008193   -0.00000000   -0.00000000

     Total force =     0.010674     Total SCF correction =     0.000125
     Energy error            =      5.6E-05 Ry
     Gradient error          =      7.5E-03 Ry/Bohr

     number of scf cycles    =  11
     number of bfgs steps    =   3

     energy             old  =      -2.3178303752 Ry
     energy             new  =      -2.3177748001 Ry

     CASE: energy            _new > energy            _old

     new trust radius        =       0.0004581670 bohr
     new conv_thr            =       0.0000000009 Ry


ATOMIC_POSITIONS (angstrom)
H             0.0536552730        0.0000000000        0.0000000000
H             0.8063447270        0.0000000000        0.0000000000



     Writing config-only to output data dir ./.save/
     NEW-OLD atomic charge density approx. for the potential

     negative rho (up, down):  4.503E-02 0.000E+00

     total cpu time spent up to now is       45.6 secs

     Self-consistent Calculation

     iteration #  1     ecut=    25.00 Ry     beta= 0.70
     Davidson diagonalization with overlap

---- Real-time Memory Report at c_bands before calling an iterative solver
           357 MiB given to the printing process from OS
             0 MiB allocation reported by mallinfo(arena+hblkhd)
           368 MiB available memory on the node where the printing process lives
------------------
     ethr =  1.00E-06,  avg # of iterations =  2.0

     Threshold (ethr) on eigenvalues was too large:
     Diagonalizing with lowered threshold

     Davidson diagonalization with overlap

---- Real-time Memory Report at c_bands before calling an iterative solver
           357 MiB given to the printing process from OS
             0 MiB allocation reported by mallinfo(arena+hblkhd)
           368 MiB available memory on the node where the printing process lives
------------------
     ethr =  3.72E-08,  avg # of iterations =  1.0

     negative rho (up, down):  4.496E-02 0.000E+00

     total cpu time spent up to now is       46.6 secs

     total energy              =      -2.31779922 Ry
     estimated scf accuracy    <       0.00000079 Ry

     iteration #  2     ecut=    25.00 Ry     beta= 0.70
     Davidson diagonalization with overlap

---- Real-time Memory Report at c_bands before calling an iterative solver
           357 MiB given to the printing process from OS
             0 MiB allocation reported by mallinfo(arena+hblkhd)
           243 MiB available memory on the node where the printing process lives
------------------
     ethr =  3.96E-08,  avg # of iterations =  1.0

     negative rho (up, down):  4.494E-02 0.000E+00

     total cpu time spent up to now is       47.3 secs

     total energy              =      -2.31780688 Ry
     estimated scf accuracy    <       0.00000001 Ry

     iteration #  3     ecut=    25.00 Ry     beta= 0.70
     Davidson diagonalization with overlap

---- Real-time Memory Report at c_bands before calling an iterative solver
           357 MiB given to the printing process from OS
             0 MiB allocation reported by mallinfo(arena+hblkhd)
           228 MiB available memory on the node where the printing process lives
------------------
     ethr =  6.60E-10,  avg # of iterations =  2.0

     negative rho (up, down):  4.494E-02 0.000E+00

     total cpu time spent up to now is       48.1 secs

     total energy              =      -2.31780701 Ry
     estimated scf accuracy    <          8.7E-10 Ry

     iteration #  4     ecut=    25.00 Ry     beta= 0.70
     Davidson diagonalization with overlap

---- Real-time Memory Report at c_bands before calling an iterative solver
           357 MiB given to the printing process from OS
             0 MiB allocation reported by mallinfo(arena+hblkhd)
           215 MiB available memory on the node where the printing process lives
------------------
     ethr =  4.34E-11,  avg # of iterations =  2.0

     negative rho (up, down):  4.494E-02 0.000E+00

     total cpu time spent up to now is       48.8 secs

     End of self-consistent calculation

          k =-0.5000-0.5000-0.5000 ( 57016 PWs)   bands (ev):

   -10.3698  -1.1245

     occupation numbers 
     1.0000   0.0000

     highest occupied, lowest unoccupied level (ev):   -10.3698   -1.1245

!    total energy              =      -2.31780732 Ry
     estimated scf accuracy    <          2.0E-10 Ry

     The total energy is the sum of the following terms:
     one-electron contribution =      -4.20003323 Ry
     hartree contribution      =       2.23601605 Ry
     xc contribution           =      -1.38189576 Ry
     ewald contribution        =       1.02810562 Ry

     convergence has been achieved in   4 iterations

     Forces acting on atoms (cartesian axes, Ry/au):

     atom    1 type  1   force =     0.01020576    0.00000000    0.00000000
     atom    2 type  1   force =    -0.01020576    0.00000000    0.00000000
     The non-local contrib.  to forces
     atom    1 type  1   force =     0.10787098    0.00000000    0.00000000
     atom    2 type  1   force =    -0.10854554    0.00000000    0.00000000
     The ionic contribution  to forces
     atom    1 type  1   force =    -0.98811018   -0.00000000   -0.00000000
     atom    2 type  1   force =     0.98811018    0.00000000   -0.00000000
     The local contribution  to forces
     atom    1 type  1   force =     0.89003052    0.00000000    0.00000000
     atom    2 type  1   force =    -0.89017831    0.00000000    0.00000000
     The core correction contribution to forces
     atom    1 type  1   force =     0.00000000    0.00000000    0.00000000
     atom    2 type  1   force =     0.00000000    0.00000000    0.00000000
     The Hubbard contrib.    to forces
     atom    1 type  1   force =     0.00000000    0.00000000    0.00000000
     atom    2 type  1   force =     0.00000000    0.00000000    0.00000000
     The SCF correction term to forces
     atom    1 type  1   force =     0.00000272    0.00000000   -0.00000000
     atom    2 type  1   force =    -0.00000380    0.00000000   -0.00000000

     Total force =     0.014433     Total SCF correction =     0.000005
     Energy error            =      2.3E-05 Ry
     Gradient error          =      1.0E-02 Ry/Bohr

     number of scf cycles    =  12
     number of bfgs steps    =   3

     energy             old  =      -2.3178303752 Ry
     energy             new  =      -2.3178073186 Ry

     CASE: energy            _new > energy            _old

     new trust radius        =       0.0000694278 bohr

     trust_radius < trust_radius_min

     resetting bfgs history

     new conv_thr            =       0.0000000009 Ry


ATOMIC_POSITIONS (angstrom)
H             0.0592030134        0.0000000000        0.0000000000
H             0.8007969866        0.0000000000        0.0000000000



     Writing config-only to output data dir ./.save/
[...]

---- Real-time Memory Report at c_bands before calling an iterative solver
           357 MiB given to the printing process from OS
             0 MiB allocation reported by mallinfo(arena+hblkhd)
           240 MiB available memory on the node where the printing process lives
------------------
     ethr =  3.96E-08,  avg # of iterations =  1.0

     negative rho (up, down):  4.494E-02 0.000E+00

     total cpu time spent up to now is      199.4 secs

     total energy              =      -2.31780688 Ry
     estimated scf accuracy    <       0.00000001 Ry

     iteration #  3     ecut=    25.00 Ry     beta= 0.70
     Davidson diagonalization with overlap

---- Real-time Memory Report at c_bands before calling an iterative solver
           357 MiB given to the printing process from OS
             0 MiB allocation reported by mallinfo(arena+hblkhd)
           226 MiB available memory on the node where the printing process lives
------------------
     ethr =  6.61E-10,  avg # of iterations =  2.0

     negative rho (up, down):  4.494E-02 0.000E+00

     total cpu time spent up to now is      200.1 secs

     total energy              =      -2.31780701 Ry
     estimated scf accuracy    <          8.7E-10 Ry

     iteration #  4     ecut=    25.00 Ry     beta= 0.70
     Davidson diagonalization with overlap

---- Real-time Memory Report at c_bands before calling an iterative solver
           357 MiB given to the printing process from OS
             0 MiB allocation reported by mallinfo(arena+hblkhd)
           212 MiB available memory on the node where the printing process lives
------------------
     ethr =  4.34E-11,  avg # of iterations =  2.0

     negative rho (up, down):  4.494E-02 0.000E+00

     total cpu time spent up to now is      200.8 secs

     End of self-consistent calculation

          k =-0.5000-0.5000-0.5000 ( 57016 PWs)   bands (ev):

   -10.3698  -1.1244

     occupation numbers 
     1.0000   0.0000

     highest occupied, lowest unoccupied level (ev):   -10.3698   -1.1244

!    total energy              =      -2.31780732 Ry
     estimated scf accuracy    <          2.0E-10 Ry

     The total energy is the sum of the following terms:
     one-electron contribution =      -4.20003323 Ry
     hartree contribution      =       2.23601604 Ry
     xc contribution           =      -1.38189576 Ry
     ewald contribution        =       1.02810562 Ry

     convergence has been achieved in   4 iterations

     Forces acting on atoms (cartesian axes, Ry/au):

     atom    1 type  1   force =     0.01020574    0.00000000    0.00000000
     atom    2 type  1   force =    -0.01020574    0.00000000    0.00000000
     The non-local contrib.  to forces
     atom    1 type  1   force =     0.10787097    0.00000000    0.00000000
     atom    2 type  1   force =    -0.10854554    0.00000000    0.00000000
     The ionic contribution  to forces
     atom    1 type  1   force =    -0.98811018    0.00000000   -0.00000000
     atom    2 type  1   force =     0.98811018   -0.00000000   -0.00000000
     The local contribution  to forces
     atom    1 type  1   force =     0.89003051    0.00000000    0.00000000
     atom    2 type  1   force =    -0.89017832    0.00000000    0.00000000
     The core correction contribution to forces
     atom    1 type  1   force =     0.00000000    0.00000000    0.00000000
     atom    2 type  1   force =     0.00000000    0.00000000    0.00000000
     The Hubbard contrib.    to forces
     atom    1 type  1   force =     0.00000000    0.00000000    0.00000000
     atom    2 type  1   force =     0.00000000    0.00000000    0.00000000
     The SCF correction term to forces
     atom    1 type  1   force =     0.00000273    0.00000000    0.00000000
     atom    2 type  1   force =    -0.00000379   -0.00000000    0.00000000

     Total force =     0.014433     Total SCF correction =     0.000005
     Energy error            =      2.3E-05 Ry
     Gradient error          =      1.0E-02 Ry/Bohr

     number of scf cycles    =  48
     number of bfgs steps    =   3

     energy             old  =      -2.3178303752 Ry
     energy             new  =      -2.3178073187 Ry

     CASE: energy            _new > energy            _old

     new trust radius        =       0.0000694285 bohr

     trust_radius < trust_radius_min

     resetting bfgs history

     new conv_thr            =       0.0000000009 Ry


ATOMIC_POSITIONS (angstrom)
H             0.0592030134        0.0000000000        0.0000000000
H             0.8007969866        0.0000000000        0.0000000000



     Writing config-only to output data dir ./.save/
     NEW-OLD atomic charge density approx. for the potential

     negative rho (up, down):  4.492E-02 0.000E+00

     total cpu time spent up to now is      201.6 secs

     Self-consistent Calculation

     iteration #  1     ecut=    25.00 Ry     beta= 0.70
     Davidson diagonalization with overlap

---- Real-time Memory Report at c_bands before calling an iterative solver
           357 MiB given to the printing process from OS
             0 MiB allocation reported by mallinfo(arena+hblkhd)
           365 MiB available memory on the node where the printing process lives
------------------
     ethr =  1.00E-06,  avg # of iterations =  3.0

     negative rho (up, down):  4.540E-02 0.000E+00

     total cpu time spent up to now is      202.5 secs

     total energy              =      -2.31750900 Ry
     estimated scf accuracy    <       0.00003497 Ry

     iteration #  2     ecut=    25.00 Ry     beta= 0.70
     Davidson diagonalization with overlap

---- Real-time Memory Report at c_bands before calling an iterative solver
           357 MiB given to the printing process from OS
             0 MiB allocation reported by mallinfo(arena+hblkhd)
           240 MiB available memory on the node where the printing process lives
------------------
     ethr =  1.75E-06,  avg # of iterations =  1.0

     negative rho (up, down):  4.550E-02 0.000E+00

     total cpu time spent up to now is      203.2 secs

     total energy              =      -2.31744430 Ry
     estimated scf accuracy    <       0.00000045 Ry

     iteration #  3     ecut=    25.00 Ry     beta= 0.70
     Davidson diagonalization with overlap

---- Real-time Memory Report at c_bands before calling an iterative solver
           357 MiB given to the printing process from OS
             0 MiB allocation reported by mallinfo(arena+hblkhd)
           226 MiB available memory on the node where the printing process lives
------------------
     ethr =  2.23E-08,  avg # of iterations =  2.0

     negative rho (up, down):  4.551E-02 0.000E+00

     total cpu time spent up to now is      203.9 secs

     total energy              =      -2.31743489 Ry
     estimated scf accuracy    <       0.00000002 Ry

     iteration #  4     ecut=    25.00 Ry     beta= 0.70
     Davidson diagonalization with overlap

---- Real-time Memory Report at c_bands before calling an iterative solver
           357 MiB given to the printing process from OS
             0 MiB allocation reported by mallinfo(arena+hblkhd)
           212 MiB available memory on the node where the printing process lives
------------------
     ethr =  1.08E-09,  avg # of iterations =  3.0

     negative rho (up, down):  4.552E-02 0.000E+00

     total cpu time spent up to now is      204.7 secs

     total energy              =      -2.31743212 Ry
     estimated scf accuracy    <          2.6E-09 Ry

     iteration #  5     ecut=    25.00 Ry     beta= 0.70
     Davidson diagonalization with overlap

---- Real-time Memory Report at c_bands before calling an iterative solver
           357 MiB given to the printing process from OS
             0 MiB allocation reported by mallinfo(arena+hblkhd)
           198 MiB available memory on the node where the printing process lives
------------------
     ethr =  1.28E-10,  avg # of iterations =  3.0

     negative rho (up, down):  4.552E-02 0.000E+00

     total cpu time spent up to now is      205.5 secs

     End of self-consistent calculation

          k =-0.5000-0.5000-0.5000 ( 57016 PWs)   bands (ev):

   -10.4257  -1.1334

     occupation numbers 
     1.0000   0.0000

     highest occupied, lowest unoccupied level (ev):   -10.4257   -1.1334

!    total energy              =      -2.31743110 Ry
     estimated scf accuracy    <          2.9E-11 Ry

     The total energy is the sum of the following terms:
     one-electron contribution =      -4.22857218 Ry
     hartree contribution      =       2.25095577 Ry
     xc contribution           =      -1.38894861 Ry
     ewald contribution        =       1.04913393 Ry

     convergence has been achieved in   5 iterations

     Forces acting on atoms (cartesian axes, Ry/au):

     atom    1 type  1   force =    -0.00784867    0.00000000    0.00000000
     atom    2 type  1   force =     0.00784867    0.00000000    0.00000000
     The non-local contrib.  to forces
     atom    1 type  1   force =     0.10801550    0.00000000    0.00000000
     atom    2 type  1   force =    -0.10888837    0.00000000    0.00000000
     The ionic contribution  to forces
     atom    1 type  1   force =    -1.01791894    0.00000000   -0.00000000
     atom    2 type  1   force =     1.01791894   -0.00000000   -0.00000000
     The local contribution  to forces
     atom    1 type  1   force =     0.90154967    0.00000000    0.00000000
     atom    2 type  1   force =    -0.90167568    0.00000000    0.00000000
     The core correction contribution to forces
     atom    1 type  1   force =     0.00000000    0.00000000    0.00000000
     atom    2 type  1   force =     0.00000000    0.00000000    0.00000000
     The Hubbard contrib.    to forces
     atom    1 type  1   force =     0.00000000    0.00000000    0.00000000
     atom    2 type  1   force =     0.00000000    0.00000000    0.00000000
     The SCF correction term to forces
     atom    1 type  1   force =     0.00001480   -0.00000000   -0.00000000
     atom    2 type  1   force =     0.00000347   -0.00000000   -0.00000000

     Total force =     0.011100     Total SCF correction =     0.000015
     Energy error            =      4.0E-04 Ry
     Gradient error          =      7.8E-03 Ry/Bohr

     number of scf cycles    =  49
     number of bfgs steps    =   3

     energy             old  =      -2.3178303752 Ry
     energy             new  =      -2.3174310970 Ry

     CASE: energy            _new > energy            _old

     new trust radius        =       0.0020509725 bohr
     new conv_thr            =       0.0000000009 Ry


ATOMIC_POSITIONS (angstrom)
H             0.0544981494        0.0000000000        0.0000000000
H             0.8055018506        0.0000000000        0.0000000000



     Writing config-only to output data dir ./.save/
     NEW-OLD atomic charge density approx. for the potential

     negative rho (up, down):  4.552E-02 0.000E+00

     total cpu time spent up to now is      206.3 secs

     Self-consistent Calculation

     iteration #  1     ecut=    25.00 Ry     beta= 0.70
     Davidson diagonalization with overlap

---- Real-time Memory Report at c_bands before calling an iterative solver
           357 MiB given to the printing process from OS
             0 MiB allocation reported by mallinfo(arena+hblkhd)
           365 MiB available memory on the node where the printing process lives
------------------
     ethr =  1.00E-06,  avg # of iterations =  3.0

     negative rho (up, down):  4.512E-02 0.000E+00

     total cpu time spent up to now is      207.1 secs

     total energy              =      -2.31770142 Ry
     estimated scf accuracy    <       0.00002541 Ry

     iteration #  2     ecut=    25.00 Ry     beta= 0.70
     Davidson diagonalization with overlap

---- Real-time Memory Report at c_bands before calling an iterative solver
           357 MiB given to the printing process from OS
             0 MiB allocation reported by mallinfo(arena+hblkhd)
           240 MiB available memory on the node where the printing process lives
------------------
     ethr =  1.27E-06,  avg # of iterations =  2.0

     negative rho (up, down):  4.505E-02 0.000E+00

     total cpu time spent up to now is      207.9 secs

     total energy              =      -2.31776150 Ry
     estimated scf accuracy    <       0.00000029 Ry

     iteration #  3     ecut=    25.00 Ry     beta= 0.70
     Davidson diagonalization with overlap

---- Real-time Memory Report at c_bands before calling an iterative solver
           357 MiB given to the printing process from OS
             0 MiB allocation reported by mallinfo(arena+hblkhd)
           226 MiB available memory on the node where the printing process lives
------------------
     ethr =  1.45E-08,  avg # of iterations =  2.0

     negative rho (up, down):  4.503E-02 0.000E+00

     total cpu time spent up to now is      208.6 secs

     total energy              =      -2.31777677 Ry
     estimated scf accuracy    <       0.00000001 Ry

     iteration #  4     ecut=    25.00 Ry     beta= 0.70
     Davidson diagonalization with overlap

---- Real-time Memory Report at c_bands before calling an iterative solver
           357 MiB given to the printing process from OS
             0 MiB allocation reported by mallinfo(arena+hblkhd)
           212 MiB available memory on the node where the printing process lives
------------------
     ethr =  5.63E-10,  avg # of iterations =  3.0

     negative rho (up, down):  4.503E-02 0.000E+00

     total cpu time spent up to now is      209.4 secs

     End of self-consistent calculation

          k =-0.5000-0.5000-0.5000 ( 57016 PWs)   bands (ev):

   -10.3784  -1.1258

     occupation numbers 
     1.0000   0.0000

     highest occupied, lowest unoccupied level (ev):   -10.3784   -1.1258

!    total energy              =      -2.31777480 Ry
     estimated scf accuracy    <          3.8E-10 Ry

     The total energy is the sum of the following terms:
     one-electron contribution =      -4.20435366 Ry
     hartree contribution      =       2.23829039 Ry
     xc contribution           =      -1.38297195 Ry
     ewald contribution        =       1.03126042 Ry

     convergence has been achieved in   4 iterations

     Forces acting on atoms (cartesian axes, Ry/au):

     atom    1 type  1   force =     0.00754762    0.00000000    0.00000000
     atom    2 type  1   force =    -0.00754762    0.00000000    0.00000000
     The non-local contrib.  to forces
     atom    1 type  1   force =     0.10788887    0.00000000    0.00000000
     atom    2 type  1   force =    -0.10859233    0.00000000    0.00000000
     The ionic contribution  to forces
     atom    1 type  1   force =    -0.99255412    0.00000000   -0.00000000
     atom    2 type  1   force =     0.99255412   -0.00000000   -0.00000000
     The local contribution  to forces
     atom    1 type  1   force =     0.89177617    0.00000000    0.00000000
     atom    2 type  1   force =    -0.89193408    0.00000000    0.00000000
     The core correction contribution to forces
     atom    1 type  1   force =     0.00000000    0.00000000    0.00000000
     atom    2 type  1   force =     0.00000000    0.00000000    0.00000000
     The Hubbard contrib.    to forces
     atom    1 type  1   force =     0.00000000    0.00000000    0.00000000
     atom    2 type  1   force =     0.00000000    0.00000000    0.00000000
     The SCF correction term to forces
     atom    1 type  1   force =     0.00009397    0.00000000   -0.00000000
     atom    2 type  1   force =     0.00008195    0.00000000   -0.00000000

     Total force =     0.010674     Total SCF correction =     0.000125
     Energy error            =      5.6E-05 Ry
     Gradient error          =      7.5E-03 Ry/Bohr

     number of scf cycles    =  50
     number of bfgs steps    =   3

     energy             old  =      -2.3178303752 Ry
     energy             new  =      -2.3177747999 Ry

     CASE: energy            _new > energy            _old

     new trust radius        =       0.0004581688 bohr

     The maximum number of steps has been reached.

     End of BFGS Geometry Optimization

ATOMIC_POSITIONS (angstrom)
H             0.0536552740        0.0000000000        0.0000000000
H             0.8063447260        0.0000000000        0.0000000000



     Writing config-only to output data dir ./.save/
     NEW-OLD atomic charge density approx. for the potential

     negative rho (up, down):  4.503E-02 0.000E+00

     Writing all to output data dir ./.save/

     init_run     :      0.73s CPU      0.76s WALL (       1 calls)
     electrons    :    168.94s CPU    170.76s WALL (      50 calls)
     update_pot   :     24.67s CPU     25.30s WALL (      50 calls)
     forces       :      9.59s CPU      9.77s WALL (      50 calls)

     Called by init_run:
     wfcinit      :      0.06s CPU      0.06s WALL (       1 calls)
     wfcinit:atom :      0.00s CPU      0.00s WALL (       1 calls)
     wfcinit:wfcr :      0.05s CPU      0.05s WALL (       1 calls)
     potinit      :      0.44s CPU      0.44s WALL (       1 calls)
     hinit0       :      0.04s CPU      0.04s WALL (       1 calls)

     Called by electrons:
     c_bands      :     36.73s CPU     36.76s WALL (     230 calls)
     sum_band     :     23.53s CPU     23.83s WALL (     230 calls)
     v_of_rho     :    109.83s CPU    110.50s WALL (     266 calls)
     v_h          :      6.77s CPU      6.80s WALL (     266 calls)
     v_xc         :    103.05s CPU    103.70s WALL (     266 calls)
     newd         :      8.42s CPU      8.44s WALL (     266 calls)
     mix_rho      :      8.99s CPU      9.84s WALL (     230 calls)

     Called by c_bands:
     init_us_2    :      0.72s CPU      0.72s WALL (     461 calls)
     init_us_2:cp :      0.72s CPU      0.72s WALL (     461 calls)
     cegterg      :     36.25s CPU     36.27s WALL (     230 calls)

     Called by sum_band:
     sum_band:wei :      0.00s CPU      0.00s WALL (     230 calls)
     sum_band:loo :      7.02s CPU      7.03s WALL (     230 calls)
     sum_band:buf :      0.00s CPU      0.00s WALL (     230 calls)
     sum_band:ini :      0.37s CPU      0.37s WALL (     230 calls)
     sum_band:cal :      0.09s CPU      0.09s WALL (     230 calls)
     sum_band:bec :      0.00s CPU      0.00s WALL (     230 calls)
     addusdens    :      2.21s CPU      2.43s WALL (     230 calls)
     addusd:skk   :      0.61s CPU      0.70s WALL (     230 calls)
     addusd:dgemm :      0.48s CPU      0.52s WALL (     230 calls)
     addusd:qvan2 :      0.59s CPU      0.65s WALL (     230 calls)

     Called by *egterg:
     cdiaghg      :      0.01s CPU      0.02s WALL (     674 calls)
     cegterg:over :      0.47s CPU      0.47s WALL (     508 calls)
     cegterg:upda :      0.35s CPU      0.35s WALL (     508 calls)
     cegterg:last :      0.64s CPU      0.64s WALL (     456 calls)
     h_psi        :     34.00s CPU     34.03s WALL (     739 calls)
     s_psi        :      0.21s CPU      0.21s WALL (     739 calls)
     g_psi        :      0.15s CPU      0.15s WALL (     508 calls)

     Called by h_psi:
     h_psi:calbec :      0.27s CPU      0.27s WALL (     739 calls)
     vloc_psi     :     33.40s CPU     33.42s WALL (     739 calls)
     add_vuspsi   :      0.22s CPU      0.22s WALL (     739 calls)

     General routines
     calbec       :      0.43s CPU      0.43s WALL (    1169 calls)
     fft          :     60.54s CPU     60.58s WALL (    3091 calls)
     ffts         :      4.62s CPU      4.62s WALL (     230 calls)
     fftw         :     35.59s CPU     35.62s WALL (    2942 calls)


     PWSCF        :   3m27.52s CPU   3m30.23s WALL


   This run was terminated on:   4: 6:59  28Feb2022            

=------------------------------------------------------------------------------=
   JOB DONE.
=------------------------------------------------------------------------------=
