
     Program PWSCF v.7.0 starts on 28Feb2022 at  3:10:24 

     This program is part of the open-source Quantum ESPRESSO suite
     for quantum simulation of materials; please cite
         "P. Giannozzi et al., J. Phys.:Condens. Matter 21 395502 (2009);
         "P. Giannozzi et al., J. Phys.:Condens. Matter 29 465901 (2017);
         "P. Giannozzi et al., J. Chem. Phys. 152 154105 (2020);
          URL http://www.quantum-espresso.org", 
     in publications or presentations arising from this work. More details at
     http://www.quantum-espresso.org/quote

     Serial version
     556 MiB available memory on the printing compute node when the environment starts

     Waiting for input...
     Reading input from standard input

     Current dimensions of program PWSCF are:
     Max number of different atomic species (ntypx) = 10
     Max number of k-points (npk) =  40000
     Max angular momentum in pseudopotentials (lmaxx) =  4

     File ./.update deleted, as requested

     File ./.bfgs deleted, as requested

    ============================================================
    |  pseudopotential report for atomic species:  1           |
    |        pseudo potential version   7   3   2              |
    ------------------------------------------------------------
    |  hydrogen            PBE                  exchange-corr  |
    |  z =   1.    zv( 1) =   1.    exfact =   5.00000         |
    |  ifpcor =  0           atomic energy =  -0.91772 Ry      |
    |  index    orbital      occupation    energy              |
    |    1        100           1.00       -0.48               |
    |  rinner =  0.5000                                        |
    |    new generation scheme:                                |
    |    nbeta =  1     kkbeta =  271     rcloc =    0.6000    |
    |    ibeta    l     epsilon   rcut                         |
    |      1       0      -0.48   0.80                         |
    ============================================================

     IMPORTANT: XC functional enforced from input :
     Exchange-correlation= BLYP
                           (   1   3   1   3   0   0   0)
     Any further DFT definition will be discarded
     Please, verify this is what you really want


     G-vector sticks info
     --------------------
     sticks:   dense  smooth     PW     G-vecs:    dense   smooth      PW
     Sum        5721    5721   1565               326029   326029   45961

     Using Slab Decomposition



     bravais-lattice index     =            1
     lattice parameter (alat)  =      30.0000  a.u.
     unit-cell volume          =   27000.0000 (a.u.)^3
     number of atoms/cell      =            2
     number of atomic types    =            1
     number of electrons       =         2.00
     number of Kohn-Sham states=            2
     kinetic-energy cutoff     =      20.0000  Ry
     charge density cutoff     =      80.0000  Ry
     scf convergence threshold =      1.0E-08
     mixing beta               =       0.7000
     number of iterations used =            8  plain     mixing
     energy convergence thresh.=      1.0E-04
     force convergence thresh. =      1.0E-03
     Exchange-correlation= BLYP
                           (   1   3   1   3   0   0   0)
     nstep                     =           50


     celldm(1)=  30.000000  celldm(2)=   0.000000  celldm(3)=   0.000000
     celldm(4)=   0.000000  celldm(5)=   0.000000  celldm(6)=   0.000000

     crystal axes: (cart. coord. in units of alat)
               a(1) = (   1.000000   0.000000   0.000000 )  
               a(2) = (   0.000000   1.000000   0.000000 )  
               a(3) = (   0.000000   0.000000   1.000000 )  

     reciprocal axes: (cart. coord. in units 2 pi/alat)
               b(1) = (  1.000000  0.000000  0.000000 )  
               b(2) = (  0.000000  1.000000  0.000000 )  
               b(3) = (  0.000000  0.000000  1.000000 )  


     PseudoPot. # 1 for hy read from file:
     /root/q-e/pseudo/H_US.van
     MD5 check sum: a9a9bfe98ff56cf4de197d71fc46bb44
     Pseudo is Ultrasoft, Zval =  1.0
     Generated by Vanderbilt code, v. 7.3.2
     Using radial grid of  399 points,  1 beta functions with: 
                l(1) =   0
     Q(r) pseudized with  8 coefficients,  rinner =    0.500

     atomic species   valence    mass     pseudopotential
        H              1.00     1.00784     hy( 1.00)

      8 Sym. Ops. (no inversion) found


                                    s                        frac. trans.

      isym =  1     identity                                     

 cryst.   s( 1) = (     1          0          0      )
                  (     0          1          0      )
                  (     0          0          1      )

 cart.    s( 1) = (  1.0000000  0.0000000  0.0000000 )
                  (  0.0000000  1.0000000  0.0000000 )
                  (  0.0000000  0.0000000  1.0000000 )


      isym =  2     180 deg rotation - cart. axis [1,0,0]        

 cryst.   s( 2) = (     1          0          0      )
                  (     0         -1          0      )
                  (     0          0         -1      )

 cart.    s( 2) = (  1.0000000  0.0000000  0.0000000 )
                  (  0.0000000 -1.0000000  0.0000000 )
                  (  0.0000000  0.0000000 -1.0000000 )


      isym =  3      90 deg rotation - cart. axis [-1,0,0]       

 cryst.   s( 3) = (     1          0          0      )
                  (     0          0         -1      )
                  (     0          1          0      )

 cart.    s( 3) = (  1.0000000  0.0000000  0.0000000 )
                  (  0.0000000  0.0000000  1.0000000 )
                  (  0.0000000 -1.0000000  0.0000000 )


      isym =  4      90 deg rotation - cart. axis [1,0,0]        

 cryst.   s( 4) = (     1          0          0      )
                  (     0          0          1      )
                  (     0         -1          0      )

 cart.    s( 4) = (  1.0000000  0.0000000  0.0000000 )
                  (  0.0000000  0.0000000 -1.0000000 )
                  (  0.0000000  1.0000000  0.0000000 )


      isym =  5     inv. 180 deg rotation - cart. axis [0,0,1]   

 cryst.   s( 5) = (     1          0          0      )
                  (     0          1          0      )
                  (     0          0         -1      )

 cart.    s( 5) = (  1.0000000  0.0000000  0.0000000 )
                  (  0.0000000  1.0000000  0.0000000 )
                  (  0.0000000  0.0000000 -1.0000000 )


      isym =  6     inv. 180 deg rotation - cart. axis [0,1,0]   

 cryst.   s( 6) = (     1          0          0      )
                  (     0         -1          0      )
                  (     0          0          1      )

 cart.    s( 6) = (  1.0000000  0.0000000  0.0000000 )
                  (  0.0000000 -1.0000000  0.0000000 )
                  (  0.0000000  0.0000000  1.0000000 )


      isym =  7     inv. 180 deg rotation - cart. axis [0,1,1]   

 cryst.   s( 7) = (     1          0          0      )
                  (     0          0         -1      )
                  (     0         -1          0      )

 cart.    s( 7) = (  1.0000000  0.0000000  0.0000000 )
                  (  0.0000000  0.0000000 -1.0000000 )
                  (  0.0000000 -1.0000000  0.0000000 )


      isym =  8     inv. 180 deg rotation - cart. axis [0,1,-1]  

 cryst.   s( 8) = (     1          0          0      )
                  (     0          0          1      )
                  (     0          1          0      )

 cart.    s( 8) = (  1.0000000  0.0000000  0.0000000 )
                  (  0.0000000  0.0000000  1.0000000 )
                  (  0.0000000  1.0000000  0.0000000 )


     point group C_4v (4mm) 
     there are  5 classes
     the character table:

       E     2C4   C2    2s_v  2s_d 
A_1    1.00  1.00  1.00  1.00  1.00
A_2    1.00  1.00  1.00 -1.00 -1.00
B_1    1.00 -1.00  1.00  1.00 -1.00
B_2    1.00 -1.00  1.00 -1.00  1.00
E      2.00  0.00 -2.00  0.00  0.00

     the symmetry operations in each class and the name of the first element:

     E        1
          identity                                               
     2C4      3    4
           90 deg rotation - cart. axis [-1,0,0]                 
     C2       2
          180 deg rotation - cart. axis [1,0,0]                  
     2s_v     5    6
          inv. 180 deg rotation - cart. axis [0,0,1]             
     2s_d     7    8
          inv. 180 deg rotation - cart. axis [0,1,1]             

   Cartesian axes

     site n.     atom                  positions (alat units)
         1           H   tau(   1) = (   0.0000000   0.0000000   0.0000000  )
         2           H   tau(   2) = (   0.0440936   0.0000000   0.0000000  )

   Crystallographic axes

     site n.     atom                  positions (cryst. coord.)
         1           H   tau(   1) = (  0.0000000  0.0000000  0.0000000  )
         2           H   tau(   2) = (  0.0440936  0.0000000  0.0000000  )

     number of k points=     1
                       cart. coord. in units 2pi/alat
        k(    1) = (  -0.5000000  -0.5000000  -0.5000000), wk =   2.0000000

                       cryst. coord.
        k(    1) = (  -0.5000000  -0.5000000  -0.5000000), wk =   2.0000000

     Dense  grid:   326029 G-vectors     FFT dimensions: (  90,  90,  90)

     Dynamical RAM for                 wfc:       1.24 MB

     Dynamical RAM for     wfc (w. buffer):       1.24 MB

     Dynamical RAM for           str. fact:       4.97 MB

     Dynamical RAM for           local pot:       0.00 MB

     Dynamical RAM for          nlocal pot:       1.24 MB

     Dynamical RAM for                qrad:       0.01 MB

     Dynamical RAM for          rho,v,vnew:      31.61 MB

     Dynamical RAM for               rhoin:      10.54 MB

     Dynamical RAM for            rho*nmix:      79.60 MB

     Dynamical RAM for           G-vectors:      21.14 MB

     Dynamical RAM for          h,s,v(r/c):       0.00 MB

     Dynamical RAM for          <psi|beta>:       0.00 MB

     Dynamical RAM for                 psi:       2.49 MB

     Dynamical RAM for                hpsi:       2.49 MB

     Dynamical RAM for                spsi:       2.49 MB

     Dynamical RAM for      wfcinit/wfcrot:       2.49 MB

     Dynamical RAM for           addusdens:      29.85 MB

     Dynamical RAM for          addusforce:      42.29 MB

     Estimated static dynamical RAM per process >     108.52 MB

     Estimated max dynamical RAM per process >     230.40 MB

     Initial potential from superposition of free atoms

     starting charge       2.0000, renormalised to       2.0000

     negative rho (up, down):  5.300E-02 0.000E+00
     Starting wfcs are    2 randomized atomic wfcs

     total cpu time spent up to now is        0.6 secs

     Self-consistent Calculation

     iteration #  1     ecut=    20.00 Ry     beta= 0.70
     Davidson diagonalization with overlap

---- Real-time Memory Report at c_bands before calling an iterative solver
           195 MiB given to the printing process from OS
             0 MiB allocation reported by mallinfo(arena+hblkhd)
           429 MiB available memory on the node where the printing process lives
------------------
     ethr =  1.00E-02,  avg # of iterations =  5.0

     negative rho (up, down):  8.615E-02 0.000E+00

     total cpu time spent up to now is        1.4 secs

     total energy              =      -2.30311791 Ry
     estimated scf accuracy    <       0.13797482 Ry

     iteration #  2     ecut=    20.00 Ry     beta= 0.70
     Davidson diagonalization with overlap

---- Real-time Memory Report at c_bands before calling an iterative solver
           242 MiB given to the printing process from OS
             0 MiB allocation reported by mallinfo(arena+hblkhd)
           327 MiB available memory on the node where the printing process lives
------------------
     ethr =  6.90E-03,  avg # of iterations =  1.0

     negative rho (up, down):  9.367E-02 0.000E+00

     total cpu time spent up to now is        2.0 secs

     total energy              =      -2.30796472 Ry
     estimated scf accuracy    <       0.00151973 Ry

     iteration #  3     ecut=    20.00 Ry     beta= 0.70
     Davidson diagonalization with overlap

---- Real-time Memory Report at c_bands before calling an iterative solver
           251 MiB given to the printing process from OS
             0 MiB allocation reported by mallinfo(arena+hblkhd)
           317 MiB available memory on the node where the printing process lives
------------------
     ethr =  7.60E-05,  avg # of iterations =  9.0

     negative rho (up, down):  9.381E-02 0.000E+00

     total cpu time spent up to now is        2.8 secs

     total energy              =      -2.30826309 Ry
     estimated scf accuracy    <       0.00001451 Ry

     iteration #  4     ecut=    20.00 Ry     beta= 0.70
     Davidson diagonalization with overlap

---- Real-time Memory Report at c_bands before calling an iterative solver
           261 MiB given to the printing process from OS
             0 MiB allocation reported by mallinfo(arena+hblkhd)
           307 MiB available memory on the node where the printing process lives
------------------
     ethr =  7.25E-07,  avg # of iterations =  5.0

     negative rho (up, down):  9.404E-02 0.000E+00

     total cpu time spent up to now is        3.5 secs

     total energy              =      -2.30810417 Ry
     estimated scf accuracy    <       0.00000026 Ry

     iteration #  5     ecut=    20.00 Ry     beta= 0.70
     Davidson diagonalization with overlap

---- Real-time Memory Report at c_bands before calling an iterative solver
           272 MiB given to the printing process from OS
             0 MiB allocation reported by mallinfo(arena+hblkhd)
           297 MiB available memory on the node where the printing process lives
------------------
     ethr =  1.28E-08,  avg # of iterations =  2.0

     negative rho (up, down):  9.403E-02 0.000E+00

     total cpu time spent up to now is        4.0 secs

     End of self-consistent calculation

          k =-0.5000-0.5000-0.5000 ( 40800 PWs)   bands (ev):

   -10.7609  -1.3340

     occupation numbers 
     1.0000   0.0000

     highest occupied, lowest unoccupied level (ev):   -10.7609   -1.3340

!    total energy              =      -2.30810794 Ry
     estimated scf accuracy    <          3.9E-09 Ry

     The total energy is the sum of the following terms:
     one-electron contribution =      -4.34126321 Ry
     hartree contribution      =       2.32010905 Ry
     xc contribution           =      -1.42085457 Ry
     ewald contribution        =       1.13390079 Ry

     convergence has been achieved in   5 iterations

     Forces acting on atoms (cartesian axes, Ry/au):

     atom    1 type  1   force =    -0.08272788    0.00000000    0.00000000
     atom    2 type  1   force =     0.08272788    0.00000000    0.00000000
     The non-local contrib.  to forces
     atom    1 type  1   force =     0.10825119    0.00000000    0.00000000
     atom    2 type  1   force =    -0.10776800    0.00000000    0.00000000
     The ionic contribution  to forces
     atom    1 type  1   force =    -1.14256074    0.00000000   -0.00000000
     atom    2 type  1   force =     1.14256074   -0.00000000   -0.00000000
     The local contribution  to forces
     atom    1 type  1   force =     0.95182831    0.00000000    0.00000000
     atom    2 type  1   force =    -0.95182975    0.00000000    0.00000000
     The core correction contribution to forces
     atom    1 type  1   force =     0.00000000    0.00000000    0.00000000
     atom    2 type  1   force =     0.00000000    0.00000000    0.00000000
     The Hubbard contrib.    to forces
     atom    1 type  1   force =     0.00000000    0.00000000    0.00000000
     atom    2 type  1   force =     0.00000000    0.00000000    0.00000000
     The SCF correction term to forces
     atom    1 type  1   force =     0.00003418    0.00000000   -0.00000000
     atom    2 type  1   force =     0.00004572    0.00000000   -0.00000000

     Total force =     0.116995     Total SCF correction =     0.000057

     BFGS Geometry Optimization
     Energy error            =      0.0E+00 Ry
     Gradient error          =      8.3E-02 Ry/Bohr

     number of scf cycles    =   1
     number of bfgs steps    =   0

     energy             new  =      -2.3081079365 Ry

     new trust radius        =       0.0827278805 bohr
     new conv_thr            =       0.0000000100 Ry


ATOMIC_POSITIONS (angstrom)
H            -0.0437777091        0.0000000000        0.0000000000
H             0.7437777091        0.0000000000        0.0000000000



     Writing config-only to output data dir ./.save/
     NEW-OLD atomic charge density approx. for the potential

     negative rho (up, down):  9.522E-02 0.000E+00

     total cpu time spent up to now is        4.7 secs

     Self-consistent Calculation

     iteration #  1     ecut=    20.00 Ry     beta= 0.70
     Davidson diagonalization with overlap

---- Real-time Memory Report at c_bands before calling an iterative solver
           277 MiB given to the printing process from OS
             0 MiB allocation reported by mallinfo(arena+hblkhd)
           416 MiB available memory on the node where the printing process lives
------------------
     ethr =  1.00E-06,  avg # of iterations =  7.0

     negative rho (up, down):  9.015E-02 0.000E+00

     total cpu time spent up to now is        5.5 secs

     total energy              =      -2.31191002 Ry
     estimated scf accuracy    <       0.00219555 Ry

     iteration #  2     ecut=    20.00 Ry     beta= 0.70
     Davidson diagonalization with overlap

---- Real-time Memory Report at c_bands before calling an iterative solver
           277 MiB given to the printing process from OS
             0 MiB allocation reported by mallinfo(arena+hblkhd)
           319 MiB available memory on the node where the printing process lives
------------------
     ethr =  1.10E-04,  avg # of iterations =  2.0

     negative rho (up, down):  8.978E-02 0.000E+00

     total cpu time spent up to now is        6.1 secs

     total energy              =      -2.31253286 Ry
     estimated scf accuracy    <       0.00002341 Ry

     iteration #  3     ecut=    20.00 Ry     beta= 0.70
     Davidson diagonalization with overlap

---- Real-time Memory Report at c_bands before calling an iterative solver
           277 MiB given to the printing process from OS
             0 MiB allocation reported by mallinfo(arena+hblkhd)
           309 MiB available memory on the node where the printing process lives
------------------
     ethr =  1.17E-06,  avg # of iterations =  4.0

     negative rho (up, down):  8.974E-02 0.000E+00

     total cpu time spent up to now is        6.8 secs

     total energy              =      -2.31258348 Ry
     estimated scf accuracy    <       0.00000133 Ry

     iteration #  4     ecut=    20.00 Ry     beta= 0.70
     Davidson diagonalization with overlap

---- Real-time Memory Report at c_bands before calling an iterative solver
           277 MiB given to the printing process from OS
             0 MiB allocation reported by mallinfo(arena+hblkhd)
           299 MiB available memory on the node where the printing process lives
------------------
     ethr =  6.66E-08,  avg # of iterations =  2.0

     negative rho (up, down):  8.978E-02 0.000E+00

     total cpu time spent up to now is        7.4 secs

     total energy              =      -2.31256683 Ry
     estimated scf accuracy    <       0.00000008 Ry

     iteration #  5     ecut=    20.00 Ry     beta= 0.70
     Davidson diagonalization with overlap

---- Real-time Memory Report at c_bands before calling an iterative solver
           278 MiB given to the printing process from OS
             0 MiB allocation reported by mallinfo(arena+hblkhd)
           289 MiB available memory on the node where the printing process lives
------------------
     ethr =  3.76E-09,  avg # of iterations =  2.0

     negative rho (up, down):  8.978E-02 0.000E+00

     total cpu time spent up to now is        8.0 secs

     End of self-consistent calculation

          k =-0.5000-0.5000-0.5000 ( 40800 PWs)   bands (ev):

   -10.3240  -1.4018

     occupation numbers 
     1.0000   0.0000

     highest occupied, lowest unoccupied level (ev):   -10.3240   -1.4018

!    total energy              =      -2.31256793 Ry
     estimated scf accuracy    <          3.3E-10 Ry

     The total energy is the sum of the following terms:
     one-electron contribution =      -4.11522938 Ry
     hartree contribution      =       2.20221306 Ry
     xc contribution           =      -1.36543770 Ry
     ewald contribution        =       0.96588608 Ry

     convergence has been achieved in   5 iterations

     Forces acting on atoms (cartesian axes, Ry/au):

     atom    1 type  1   force =     0.05294589    0.00000000    0.00000000
     atom    2 type  1   force =    -0.05294589    0.00000000    0.00000000
     The non-local contrib.  to forces
     atom    1 type  1   force =     0.09356313    0.00000000    0.00000000
     atom    2 type  1   force =    -0.09457909    0.00000000    0.00000000
     The ionic contribution  to forces
     atom    1 type  1   force =    -0.90249797   -0.00000000   -0.00000000
     atom    2 type  1   force =     0.90249797   -0.00000000   -0.00000000
     The local contribution  to forces
     atom    1 type  1   force =     0.86142689    0.00000000    0.00000000
     atom    2 type  1   force =    -0.86131709    0.00000000    0.00000000
     The core correction contribution to forces
     atom    1 type  1   force =     0.00000000    0.00000000    0.00000000
     atom    2 type  1   force =     0.00000000    0.00000000    0.00000000
     The Hubbard contrib.    to forces
     atom    1 type  1   force =     0.00000000    0.00000000    0.00000000
     atom    2 type  1   force =     0.00000000    0.00000000    0.00000000
     The SCF correction term to forces
     atom    1 type  1   force =     0.00001289    0.00000000    0.00000000
     atom    2 type  1   force =     0.00001137    0.00000000    0.00000000

     Total force =     0.074877     Total SCF correction =     0.000017
     Energy error            =      4.5E-03 Ry
     Gradient error          =      5.3E-02 Ry/Bohr

     number of scf cycles    =   2
     number of bfgs steps    =   1

     energy             old  =      -2.3081079365 Ry
     energy             new  =      -2.3125679348 Ry

     CASE: energy            _new < energy            _old

     new trust radius        =       0.0322840675 bohr
     new conv_thr            =       0.0000000045 Ry


ATOMIC_POSITIONS (angstrom)
H            -0.0266937163        0.0000000000        0.0000000000
H             0.7266937163        0.0000000000        0.0000000000



     Writing config-only to output data dir ./.save/
     NEW-OLD atomic charge density approx. for the potential

     negative rho (up, down):  8.836E-02 0.000E+00

     total cpu time spent up to now is        8.6 secs

     Self-consistent Calculation

     iteration #  1     ecut=    20.00 Ry     beta= 0.70
     Davidson diagonalization with overlap

---- Real-time Memory Report at c_bands before calling an iterative solver
           278 MiB given to the printing process from OS
             0 MiB allocation reported by mallinfo(arena+hblkhd)
           414 MiB available memory on the node where the printing process lives
------------------
     ethr =  1.00E-06,  avg # of iterations =  3.0

     negative rho (up, down):  9.089E-02 0.000E+00

     total cpu time spent up to now is        9.3 secs

     total energy              =      -2.31379581 Ry
     estimated scf accuracy    <       0.00029721 Ry

     iteration #  2     ecut=    20.00 Ry     beta= 0.70
     Davidson diagonalization with overlap

---- Real-time Memory Report at c_bands before calling an iterative solver
           278 MiB given to the printing process from OS
             0 MiB allocation reported by mallinfo(arena+hblkhd)
           317 MiB available memory on the node where the printing process lives
------------------
     ethr =  1.49E-05,  avg # of iterations =  1.0

     negative rho (up, down):  9.148E-02 0.000E+00

     total cpu time spent up to now is        9.9 secs

     total energy              =      -2.31344399 Ry
     estimated scf accuracy    <       0.00000440 Ry

     iteration #  3     ecut=    20.00 Ry     beta= 0.70
     Davidson diagonalization with overlap

---- Real-time Memory Report at c_bands before calling an iterative solver
           278 MiB given to the printing process from OS
             0 MiB allocation reported by mallinfo(arena+hblkhd)
           307 MiB available memory on the node where the printing process lives
------------------
     ethr =  2.20E-07,  avg # of iterations =  2.0

     negative rho (up, down):  9.156E-02 0.000E+00

     total cpu time spent up to now is       10.6 secs

     total energy              =      -2.31337787 Ry
     estimated scf accuracy    <       0.00000018 Ry

     iteration #  4     ecut=    20.00 Ry     beta= 0.70
     Davidson diagonalization with overlap

---- Real-time Memory Report at c_bands before calling an iterative solver
           278 MiB given to the printing process from OS
             0 MiB allocation reported by mallinfo(arena+hblkhd)
           297 MiB available memory on the node where the printing process lives
------------------
     ethr =  9.15E-09,  avg # of iterations =  2.0

     negative rho (up, down):  9.157E-02 0.000E+00

     total cpu time spent up to now is       11.2 secs

     total energy              =      -2.31336886 Ry
     estimated scf accuracy    <       0.00000002 Ry

     iteration #  5     ecut=    20.00 Ry     beta= 0.70
     Davidson diagonalization with overlap

---- Real-time Memory Report at c_bands before calling an iterative solver
           278 MiB given to the printing process from OS
             0 MiB allocation reported by mallinfo(arena+hblkhd)
           287 MiB available memory on the node where the printing process lives
------------------
     ethr =  9.51E-10,  avg # of iterations =  3.0

     negative rho (up, down):  9.157E-02 0.000E+00

     total cpu time spent up to now is       11.8 secs

     End of self-consistent calculation

          k =-0.5000-0.5000-0.5000 ( 40800 PWs)   bands (ev):

   -10.4867  -1.3864

     occupation numbers 
     1.0000   0.0000

     highest occupied, lowest unoccupied level (ev):   -10.4867   -1.3864

!    total energy              =      -2.31336341 Ry
     estimated scf accuracy    <          2.5E-10 Ry

     The total energy is the sum of the following terms:
     one-electron contribution =      -4.20086480 Ry
     hartree contribution      =       2.24713039 Ry
     xc contribution           =      -1.38643253 Ry
     ewald contribution        =       1.02680352 Ry

     convergence has been achieved in   5 iterations

     Forces acting on atoms (cartesian axes, Ry/au):

     atom    1 type  1   force =     0.00434531    0.00000000    0.00000000
     atom    2 type  1   force =    -0.00434531    0.00000000    0.00000000
     The non-local contrib.  to forces
     atom    1 type  1   force =     0.09424556    0.00000000    0.00000000
     atom    2 type  1   force =    -0.09424555    0.00000000    0.00000000
     The ionic contribution  to forces
     atom    1 type  1   force =    -0.98627891    0.00000000   -0.00000000
     atom    2 type  1   force =     0.98627891    0.00000000   -0.00000000
     The local contribution  to forces
     atom    1 type  1   force =     0.89645160    0.00000000    0.00000000
     atom    2 type  1   force =    -0.89639349    0.00000000    0.00000000
     The core correction contribution to forces
     atom    1 type  1   force =     0.00000000    0.00000000    0.00000000
     atom    2 type  1   force =     0.00000000    0.00000000    0.00000000
     The Hubbard contrib.    to forces
     atom    1 type  1   force =     0.00000000    0.00000000    0.00000000
     atom    2 type  1   force =     0.00000000    0.00000000    0.00000000
     The SCF correction term to forces
     atom    1 type  1   force =     0.00008074   -0.00000000    0.00000000
     atom    2 type  1   force =     0.00016850    0.00000000    0.00000000

     Total force =     0.006145     Total SCF correction =     0.000187
     Energy error            =      8.0E-04 Ry
     Gradient error          =      4.3E-03 Ry/Bohr

     number of scf cycles    =   3
     number of bfgs steps    =   2

     energy             old  =      -2.3125679348 Ry
     energy             new  =      -2.3133634099 Ry

     CASE: energy            _new < energy            _old

     new trust radius        =       0.0028864738 bohr
     new conv_thr            =       0.0000000004 Ry


ATOMIC_POSITIONS (angstrom)
H            -0.0251662601        0.0000000000        0.0000000000
H             0.7251662601        0.0000000000        0.0000000000



     Writing config-only to output data dir ./.save/
     NEW-OLD atomic charge density approx. for the potential

     negative rho (up, down):  9.146E-02 0.000E+00

     total cpu time spent up to now is       12.5 secs

     Self-consistent Calculation

     iteration #  1     ecut=    20.00 Ry     beta= 0.70
     Davidson diagonalization with overlap

---- Real-time Memory Report at c_bands before calling an iterative solver
           278 MiB given to the printing process from OS
             0 MiB allocation reported by mallinfo(arena+hblkhd)
           414 MiB available memory on the node where the printing process lives
------------------
     ethr =  1.00E-06,  avg # of iterations =  2.0

     negative rho (up, down):  9.165E-02 0.000E+00

     total cpu time spent up to now is       13.1 secs

     total energy              =      -2.31333643 Ry
     estimated scf accuracy    <       0.00000218 Ry

     iteration #  2     ecut=    20.00 Ry     beta= 0.70
     Davidson diagonalization with overlap

---- Real-time Memory Report at c_bands before calling an iterative solver
           278 MiB given to the printing process from OS
             0 MiB allocation reported by mallinfo(arena+hblkhd)
           317 MiB available memory on the node where the printing process lives
------------------
     ethr =  1.09E-07,  avg # of iterations =  2.0

     negative rho (up, down):  9.170E-02 0.000E+00

     total cpu time spent up to now is       13.7 secs

     total energy              =      -2.31331040 Ry
     estimated scf accuracy    <       0.00000006 Ry

     iteration #  3     ecut=    20.00 Ry     beta= 0.70
     Davidson diagonalization with overlap

---- Real-time Memory Report at c_bands before calling an iterative solver
           278 MiB given to the printing process from OS
             0 MiB allocation reported by mallinfo(arena+hblkhd)
           307 MiB available memory on the node where the printing process lives
------------------
     ethr =  2.80E-09,  avg # of iterations =  2.0

     negative rho (up, down):  9.170E-02 0.000E+00

     total cpu time spent up to now is       14.3 secs

     total energy              =      -2.31331255 Ry
     estimated scf accuracy    <          5.1E-09 Ry

     iteration #  4     ecut=    20.00 Ry     beta= 0.70
     Davidson diagonalization with overlap

---- Real-time Memory Report at c_bands before calling an iterative solver
           278 MiB given to the printing process from OS
             0 MiB allocation reported by mallinfo(arena+hblkhd)
           297 MiB available memory on the node where the printing process lives
------------------
     ethr =  2.56E-10,  avg # of iterations =  3.0

     negative rho (up, down):  9.170E-02 0.000E+00

     total cpu time spent up to now is       15.0 secs

     total energy              =      -2.31330678 Ry
     estimated scf accuracy    <          4.2E-09 Ry

     iteration #  5     ecut=    20.00 Ry     beta= 0.70
     Davidson diagonalization with overlap

---- Real-time Memory Report at c_bands before calling an iterative solver
           278 MiB given to the printing process from OS
             0 MiB allocation reported by mallinfo(arena+hblkhd)
           287 MiB available memory on the node where the printing process lives
------------------
     ethr =  2.12E-10,  avg # of iterations =  3.0

     negative rho (up, down):  9.170E-02 0.000E+00

     total cpu time spent up to now is       15.6 secs

     End of self-consistent calculation

          k =-0.5000-0.5000-0.5000 ( 40800 PWs)   bands (ev):

   -10.5025  -1.3895

     occupation numbers 
     1.0000   0.0000

     highest occupied, lowest unoccupied level (ev):   -10.5025   -1.3895

!    total energy              =      -2.31331581 Ry
     estimated scf accuracy    <          1.6E-10 Ry

     The total energy is the sum of the following terms:
     one-electron contribution =      -4.20859801 Ry
     hartree contribution      =       2.25106339 Ry
     xc contribution           =      -1.38830165 Ry
     ewald contribution        =       1.03252046 Ry

     convergence has been achieved in   5 iterations

     Forces acting on atoms (cartesian axes, Ry/au):

     atom    1 type  1   force =    -0.00026175    0.00000000    0.00000000
     atom    2 type  1   force =     0.00026175    0.00000000    0.00000000
     The non-local contrib.  to forces
     atom    1 type  1   force =     0.09483876    0.00000000    0.00000000
     atom    2 type  1   force =    -0.09425861    0.00000000    0.00000000
     The ionic contribution  to forces
     atom    1 type  1   force =    -0.99433181   -0.00000000   -0.00000000
     atom    2 type  1   force =     0.99433181   -0.00000000   -0.00000000
     The local contribution  to forces
     atom    1 type  1   force =     0.89954301    0.00000000    0.00000000
     atom    2 type  1   force =    -0.89953170    0.00000000    0.00000000
     The core correction contribution to forces
     atom    1 type  1   force =     0.00000000    0.00000000    0.00000000
     atom    2 type  1   force =     0.00000000    0.00000000    0.00000000
     The Hubbard contrib.    to forces
     atom    1 type  1   force =     0.00000000    0.00000000    0.00000000
     atom    2 type  1   force =     0.00000000    0.00000000    0.00000000
     The SCF correction term to forces
     atom    1 type  1   force =     0.00011081    0.00000000    0.00000000
     atom    2 type  1   force =     0.00014278    0.00000000    0.00000000

     Total force =     0.000370     Total SCF correction =     0.000181
     SCF correction compared to forces is large: reduce conv_thr to get better values
     Energy error            =      4.8E-05 Ry
     Gradient error          =      2.6E-04 Ry/Bohr

     bfgs converged in   4 scf cycles and   3 bfgs steps
     (criteria: energy <  1.0E-04 Ry, force <  1.0E-03 Ry/Bohr)

     End of BFGS Geometry Optimization

     Final energy             =      -2.3133158100 Ry

     File ./.bfgs deleted, as requested
Begin final coordinates

ATOMIC_POSITIONS (angstrom)
H            -0.0251662601        0.0000000000        0.0000000000
H             0.7251662601        0.0000000000        0.0000000000
End final coordinates



     Writing all to output data dir ./.save/

     init_run     :      0.59s CPU      0.62s WALL (       1 calls)
     electrons    :     13.04s CPU     13.12s WALL (       4 calls)
     update_pot   :      1.19s CPU      1.22s WALL (       3 calls)
     forces       :      0.58s CPU      0.58s WALL (       4 calls)

     Called by init_run:
     wfcinit      :      0.05s CPU      0.05s WALL (       1 calls)
     wfcinit:atom :      0.00s CPU      0.00s WALL (       1 calls)
     wfcinit:wfcr :      0.05s CPU      0.05s WALL (       1 calls)
     potinit      :      0.36s CPU      0.38s WALL (       1 calls)
     hinit0       :      0.03s CPU      0.03s WALL (       1 calls)

     Called by electrons:
     c_bands      :      3.13s CPU      3.14s WALL (      20 calls)
     sum_band     :      1.58s CPU      1.59s WALL (      20 calls)
     v_of_rho     :      8.22s CPU      8.27s WALL (      24 calls)
     v_h          :      0.47s CPU      0.47s WALL (      24 calls)
     v_xc         :      7.76s CPU      7.81s WALL (      24 calls)
     newd         :      0.60s CPU      0.60s WALL (      24 calls)
     mix_rho      :      0.69s CPU      0.72s WALL (      20 calls)

     Called by c_bands:
     init_us_2    :      0.05s CPU      0.05s WALL (      41 calls)
     init_us_2:cp :      0.05s CPU      0.05s WALL (      41 calls)
     cegterg      :      3.10s CPU      3.10s WALL (      20 calls)

     Called by sum_band:
     sum_band:wei :      0.00s CPU      0.00s WALL (      20 calls)
     sum_band:loo :      0.48s CPU      0.48s WALL (      20 calls)
     sum_band:buf :      0.00s CPU      0.00s WALL (      20 calls)
     sum_band:ini :      0.02s CPU      0.02s WALL (      20 calls)
     sum_band:cal :      0.01s CPU      0.01s WALL (      20 calls)
     sum_band:bec :      0.00s CPU      0.00s WALL (      20 calls)
     addusdens    :      0.14s CPU      0.14s WALL (      20 calls)
     addusd:skk   :      0.04s CPU      0.04s WALL (      20 calls)
     addusd:dgemm :      0.03s CPU      0.03s WALL (      20 calls)
     addusd:qvan2 :      0.04s CPU      0.04s WALL (      20 calls)

     Called by *egterg:
     cdiaghg      :      0.00s CPU      0.00s WALL (      79 calls)
     cegterg:over :      0.04s CPU      0.04s WALL (      62 calls)
     cegterg:upda :      0.03s CPU      0.03s WALL (      62 calls)
     cegterg:last :      0.06s CPU      0.06s WALL (      52 calls)
     h_psi        :      2.96s CPU      2.96s WALL (      83 calls)
     s_psi        :      0.02s CPU      0.02s WALL (      83 calls)
     g_psi        :      0.01s CPU      0.01s WALL (      62 calls)

     Called by h_psi:
     h_psi:calbec :      0.02s CPU      0.02s WALL (      83 calls)
     vloc_psi     :      2.91s CPU      2.91s WALL (      83 calls)
     add_vuspsi   :      0.02s CPU      0.02s WALL (      83 calls)

     General routines
     calbec       :      0.03s CPU      0.03s WALL (     119 calls)
     fft          :      4.29s CPU      4.29s WALL (     275 calls)
     ffts         :      0.31s CPU      0.31s WALL (      20 calls)
     fftw         :      3.01s CPU      3.02s WALL (     310 calls)


     PWSCF        :     15.61s CPU     15.77s WALL


   This run was terminated on:   3:10:40  28Feb2022            

=------------------------------------------------------------------------------=
   JOB DONE.
=------------------------------------------------------------------------------=
