
     Program PWSCF v.7.0 starts on 28Feb2022 at  2:53:57 

     This program is part of the open-source Quantum ESPRESSO suite
     for quantum simulation of materials; please cite
         "P. Giannozzi et al., J. Phys.:Condens. Matter 21 395502 (2009);
         "P. Giannozzi et al., J. Phys.:Condens. Matter 29 465901 (2017);
         "P. Giannozzi et al., J. Chem. Phys. 152 154105 (2020);
          URL http://www.quantum-espresso.org", 
     in publications or presentations arising from this work. More details at
     http://www.quantum-espresso.org/quote

     Serial version
     564 MiB available memory on the printing compute node when the environment starts

     Waiting for input...
     Reading input from standard input

     Current dimensions of program PWSCF are:
     Max number of different atomic species (ntypx) = 10
     Max number of k-points (npk) =  40000
     Max angular momentum in pseudopotentials (lmaxx) =  4

    ============================================================
    |  pseudopotential report for atomic species:  1           |
    |        pseudo potential version   7   3   2              |
    ------------------------------------------------------------
    |  hydrogen            PBE                  exchange-corr  |
    |  z =   1.    zv( 1) =   1.    exfact =   5.00000         |
    |  ifpcor =  0           atomic energy =  -0.91772 Ry      |
    |  index    orbital      occupation    energy              |
    |    1        100           1.00       -0.48               |
    |  rinner =  0.5000                                        |
    |    new generation scheme:                                |
    |    nbeta =  1     kkbeta =  271     rcloc =    0.6000    |
    |    ibeta    l     epsilon   rcut                         |
    |      1       0      -0.48   0.80                         |
    ============================================================

     IMPORTANT: XC functional enforced from input :
     Exchange-correlation= BLYP
                           (   1   3   1   3   0   0   0)
     Any further DFT definition will be discarded
     Please, verify this is what you really want


     G-vector sticks info
     --------------------
     sticks:   dense  smooth     PW     G-vecs:    dense   smooth      PW
     Sum        1433    1433    421                40651    40651    6451

     Using Slab Decomposition



     bravais-lattice index     =            1
     lattice parameter (alat)  =      30.0000  a.u.
     unit-cell volume          =   27000.0000 (a.u.)^3
     number of atoms/cell      =            2
     number of atomic types    =            1
     number of electrons       =         2.00
     number of Kohn-Sham states=            2
     kinetic-energy cutoff     =       5.0000  Ry
     charge density cutoff     =      20.0000  Ry
     scf convergence threshold =      1.0E-08
     mixing beta               =       0.7000
     number of iterations used =            8  plain     mixing
     energy convergence thresh.=      1.0E-04
     force convergence thresh. =      1.0E-03
     Exchange-correlation= BLYP
                           (   1   3   1   3   0   0   0)
     nstep                     =           50


     celldm(1)=  30.000000  celldm(2)=   0.000000  celldm(3)=   0.000000
     celldm(4)=   0.000000  celldm(5)=   0.000000  celldm(6)=   0.000000

     crystal axes: (cart. coord. in units of alat)
               a(1) = (   1.000000   0.000000   0.000000 )  
               a(2) = (   0.000000   1.000000   0.000000 )  
               a(3) = (   0.000000   0.000000   1.000000 )  

     reciprocal axes: (cart. coord. in units 2 pi/alat)
               b(1) = (  1.000000  0.000000  0.000000 )  
               b(2) = (  0.000000  1.000000  0.000000 )  
               b(3) = (  0.000000  0.000000  1.000000 )  


     PseudoPot. # 1 for hy read from file:
     /root/q-e/pseudo/H_US.van
     MD5 check sum: a9a9bfe98ff56cf4de197d71fc46bb44
     Pseudo is Ultrasoft, Zval =  1.0
     Generated by Vanderbilt code, v. 7.3.2
     Using radial grid of  399 points,  1 beta functions with: 
                l(1) =   0
     Q(r) pseudized with  8 coefficients,  rinner =    0.500

     atomic species   valence    mass     pseudopotential
        H              1.00     1.00784     hy( 1.00)

      8 Sym. Ops. (no inversion) found


                                    s                        frac. trans.

      isym =  1     identity                                     

 cryst.   s( 1) = (     1          0          0      )
                  (     0          1          0      )
                  (     0          0          1      )

 cart.    s( 1) = (  1.0000000  0.0000000  0.0000000 )
                  (  0.0000000  1.0000000  0.0000000 )
                  (  0.0000000  0.0000000  1.0000000 )


      isym =  2     180 deg rotation - cart. axis [1,0,0]        

 cryst.   s( 2) = (     1          0          0      )
                  (     0         -1          0      )
                  (     0          0         -1      )

 cart.    s( 2) = (  1.0000000  0.0000000  0.0000000 )
                  (  0.0000000 -1.0000000  0.0000000 )
                  (  0.0000000  0.0000000 -1.0000000 )


      isym =  3      90 deg rotation - cart. axis [-1,0,0]       

 cryst.   s( 3) = (     1          0          0      )
                  (     0          0         -1      )
                  (     0          1          0      )

 cart.    s( 3) = (  1.0000000  0.0000000  0.0000000 )
                  (  0.0000000  0.0000000  1.0000000 )
                  (  0.0000000 -1.0000000  0.0000000 )


      isym =  4      90 deg rotation - cart. axis [1,0,0]        

 cryst.   s( 4) = (     1          0          0      )
                  (     0          0          1      )
                  (     0         -1          0      )

 cart.    s( 4) = (  1.0000000  0.0000000  0.0000000 )
                  (  0.0000000  0.0000000 -1.0000000 )
                  (  0.0000000  1.0000000  0.0000000 )


      isym =  5     inv. 180 deg rotation - cart. axis [0,0,1]   

 cryst.   s( 5) = (     1          0          0      )
                  (     0          1          0      )
                  (     0          0         -1      )

 cart.    s( 5) = (  1.0000000  0.0000000  0.0000000 )
                  (  0.0000000  1.0000000  0.0000000 )
                  (  0.0000000  0.0000000 -1.0000000 )


      isym =  6     inv. 180 deg rotation - cart. axis [0,1,0]   

 cryst.   s( 6) = (     1          0          0      )
                  (     0         -1          0      )
                  (     0          0          1      )

 cart.    s( 6) = (  1.0000000  0.0000000  0.0000000 )
                  (  0.0000000 -1.0000000  0.0000000 )
                  (  0.0000000  0.0000000  1.0000000 )


      isym =  7     inv. 180 deg rotation - cart. axis [0,1,1]   

 cryst.   s( 7) = (     1          0          0      )
                  (     0          0         -1      )
                  (     0         -1          0      )

 cart.    s( 7) = (  1.0000000  0.0000000  0.0000000 )
                  (  0.0000000  0.0000000 -1.0000000 )
                  (  0.0000000 -1.0000000  0.0000000 )


      isym =  8     inv. 180 deg rotation - cart. axis [0,1,-1]  

 cryst.   s( 8) = (     1          0          0      )
                  (     0          0          1      )
                  (     0          1          0      )

 cart.    s( 8) = (  1.0000000  0.0000000  0.0000000 )
                  (  0.0000000  0.0000000  1.0000000 )
                  (  0.0000000  1.0000000  0.0000000 )


     point group C_4v (4mm) 
     there are  5 classes
     the character table:

       E     2C4   C2    2s_v  2s_d 
A_1    1.00  1.00  1.00  1.00  1.00
A_2    1.00  1.00  1.00 -1.00 -1.00
B_1    1.00 -1.00  1.00  1.00 -1.00
B_2    1.00 -1.00  1.00 -1.00  1.00
E      2.00  0.00 -2.00  0.00  0.00

     the symmetry operations in each class and the name of the first element:

     E        1
          identity                                               
     2C4      3    4
           90 deg rotation - cart. axis [-1,0,0]                 
     C2       2
          180 deg rotation - cart. axis [1,0,0]                  
     2s_v     5    6
          inv. 180 deg rotation - cart. axis [0,0,1]             
     2s_d     7    8
          inv. 180 deg rotation - cart. axis [0,1,1]             

   Cartesian axes

     site n.     atom                  positions (alat units)
         1           H   tau(   1) = (   0.0000000   0.0000000   0.0000000  )
         2           H   tau(   2) = (   0.0466132   0.0000000   0.0000000  )

   Crystallographic axes

     site n.     atom                  positions (cryst. coord.)
         1           H   tau(   1) = (  0.0000000  0.0000000  0.0000000  )
         2           H   tau(   2) = (  0.0466132  0.0000000  0.0000000  )

     number of k points=     1
                       cart. coord. in units 2pi/alat
        k(    1) = (  -0.5000000  -0.5000000  -0.5000000), wk =   2.0000000

                       cryst. coord.
        k(    1) = (  -0.5000000  -0.5000000  -0.5000000), wk =   2.0000000

     Dense  grid:    40651 G-vectors     FFT dimensions: (  45,  45,  45)

     Dynamical RAM for                 wfc:       0.16 MB

     Dynamical RAM for     wfc (w. buffer):       0.16 MB

     Dynamical RAM for           str. fact:       0.62 MB

     Dynamical RAM for           local pot:       0.00 MB

     Dynamical RAM for          nlocal pot:       0.16 MB

     Dynamical RAM for                qrad:       0.00 MB

     Dynamical RAM for          rho,v,vnew:       3.95 MB

     Dynamical RAM for               rhoin:       1.32 MB

     Dynamical RAM for            rho*nmix:       9.92 MB

     Dynamical RAM for           G-vectors:       2.64 MB

     Dynamical RAM for          h,s,v(r/c):       0.00 MB

     Dynamical RAM for          <psi|beta>:       0.00 MB

     Dynamical RAM for                 psi:       0.31 MB

     Dynamical RAM for                hpsi:       0.31 MB

     Dynamical RAM for                spsi:       0.31 MB

     Dynamical RAM for      wfcinit/wfcrot:       0.31 MB

     Dynamical RAM for           addusdens:       3.72 MB

     Dynamical RAM for          addusforce:       5.27 MB

     Estimated static dynamical RAM per process >      13.55 MB

     Estimated max dynamical RAM per process >      28.75 MB

     Initial potential from superposition of free atoms

     starting charge       2.0000, renormalised to       2.0000

     negative rho (up, down):  5.163E-01 0.000E+00
     Starting wfcs are    2 randomized atomic wfcs

     total cpu time spent up to now is        0.1 secs

     Self-consistent Calculation

     iteration #  1     ecut=     5.00 Ry     beta= 0.70
     Davidson diagonalization with overlap

---- Real-time Memory Report at c_bands before calling an iterative solver
            39 MiB given to the printing process from OS
             0 MiB allocation reported by mallinfo(arena+hblkhd)
           545 MiB available memory on the node where the printing process lives
------------------
     ethr =  1.00E-02,  avg # of iterations =  5.0

     negative rho (up, down):  4.326E-01 0.000E+00

     total cpu time spent up to now is        0.2 secs

     total energy              =      -2.02275253 Ry
     estimated scf accuracy    <       0.03747426 Ry

     iteration #  2     ecut=     5.00 Ry     beta= 0.70
     Davidson diagonalization with overlap

---- Real-time Memory Report at c_bands before calling an iterative solver
            45 MiB given to the printing process from OS
             0 MiB allocation reported by mallinfo(arena+hblkhd)
           532 MiB available memory on the node where the printing process lives
------------------
     ethr =  1.87E-03,  avg # of iterations =  1.0

     negative rho (up, down):  3.946E-01 0.000E+00

     total cpu time spent up to now is        0.2 secs

     total energy              =      -2.03832539 Ry
     estimated scf accuracy    <       0.00175968 Ry

     iteration #  3     ecut=     5.00 Ry     beta= 0.70
     Davidson diagonalization with overlap

---- Real-time Memory Report at c_bands before calling an iterative solver
            46 MiB given to the printing process from OS
             0 MiB allocation reported by mallinfo(arena+hblkhd)
           531 MiB available memory on the node where the printing process lives
------------------
     ethr =  8.80E-05,  avg # of iterations =  9.0

     negative rho (up, down):  3.887E-01 0.000E+00

     total cpu time spent up to now is        0.4 secs

     total energy              =      -2.03979937 Ry
     estimated scf accuracy    <       0.00007113 Ry

     iteration #  4     ecut=     5.00 Ry     beta= 0.70
     Davidson diagonalization with overlap

---- Real-time Memory Report at c_bands before calling an iterative solver
            48 MiB given to the printing process from OS
             0 MiB allocation reported by mallinfo(arena+hblkhd)
           530 MiB available memory on the node where the printing process lives
------------------
     c_bands:  1 eigenvalues not converged
     ethr =  3.56E-06,  avg # of iterations = 20.0

     negative rho (up, down):  3.846E-01 0.000E+00

     total cpu time spent up to now is        0.5 secs

     total energy              =      -2.04261278 Ry
     estimated scf accuracy    <       0.00007211 Ry

     iteration #  5     ecut=     5.00 Ry     beta= 0.70
     Davidson diagonalization with overlap

---- Real-time Memory Report at c_bands before calling an iterative solver
            49 MiB given to the printing process from OS
             0 MiB allocation reported by mallinfo(arena+hblkhd)
           528 MiB available memory on the node where the printing process lives
------------------
     ethr =  3.56E-06,  avg # of iterations =  7.0

     negative rho (up, down):  3.836E-01 0.000E+00

     total cpu time spent up to now is        0.6 secs

     total energy              =      -2.04273786 Ry
     estimated scf accuracy    <       0.00006457 Ry

     iteration #  6     ecut=     5.00 Ry     beta= 0.70
     Davidson diagonalization with overlap

---- Real-time Memory Report at c_bands before calling an iterative solver
            50 MiB given to the printing process from OS
             0 MiB allocation reported by mallinfo(arena+hblkhd)
           527 MiB available memory on the node where the printing process lives
------------------
     ethr =  3.23E-06,  avg # of iterations =  6.0

     negative rho (up, down):  3.840E-01 0.000E+00

     total cpu time spent up to now is        0.6 secs

     total energy              =      -2.04290706 Ry
     estimated scf accuracy    <       0.00002047 Ry

     iteration #  7     ecut=     5.00 Ry     beta= 0.70
     Davidson diagonalization with overlap

---- Real-time Memory Report at c_bands before calling an iterative solver
            51 MiB given to the printing process from OS
             0 MiB allocation reported by mallinfo(arena+hblkhd)
           526 MiB available memory on the node where the printing process lives
------------------
     ethr =  1.02E-06,  avg # of iterations =  3.0

     negative rho (up, down):  3.840E-01 0.000E+00

     total cpu time spent up to now is        0.7 secs

     total energy              =      -2.04301016 Ry
     estimated scf accuracy    <       0.00000196 Ry

     iteration #  8     ecut=     5.00 Ry     beta= 0.70
     Davidson diagonalization with overlap

---- Real-time Memory Report at c_bands before calling an iterative solver
            53 MiB given to the printing process from OS
             0 MiB allocation reported by mallinfo(arena+hblkhd)
           525 MiB available memory on the node where the printing process lives
------------------
     ethr =  9.81E-08,  avg # of iterations =  3.0

     negative rho (up, down):  3.845E-01 0.000E+00

     total cpu time spent up to now is        0.8 secs

     total energy              =      -2.04278196 Ry
     estimated scf accuracy    <       0.00000361 Ry

     iteration #  9     ecut=     5.00 Ry     beta= 0.70
     Davidson diagonalization with overlap

---- Real-time Memory Report at c_bands before calling an iterative solver
            54 MiB given to the printing process from OS
             0 MiB allocation reported by mallinfo(arena+hblkhd)
           523 MiB available memory on the node where the printing process lives
------------------
     ethr =  9.81E-08,  avg # of iterations =  3.0

     negative rho (up, down):  3.849E-01 0.000E+00

     total cpu time spent up to now is        0.9 secs

     total energy              =      -2.04241544 Ry
     estimated scf accuracy    <       0.00000083 Ry

     iteration # 10     ecut=     5.00 Ry     beta= 0.70
     Davidson diagonalization with overlap

---- Real-time Memory Report at c_bands before calling an iterative solver
            55 MiB given to the printing process from OS
             0 MiB allocation reported by mallinfo(arena+hblkhd)
           522 MiB available memory on the node where the printing process lives
------------------
     ethr =  4.15E-08,  avg # of iterations =  5.0

     negative rho (up, down):  3.846E-01 0.000E+00

     total cpu time spent up to now is        0.9 secs

     total energy              =      -2.04251963 Ry
     estimated scf accuracy    <       0.00000591 Ry

     iteration # 11     ecut=     5.00 Ry     beta= 0.70
     Davidson diagonalization with overlap

---- Real-time Memory Report at c_bands before calling an iterative solver
            55 MiB given to the printing process from OS
             0 MiB allocation reported by mallinfo(arena+hblkhd)
           522 MiB available memory on the node where the printing process lives
------------------
     ethr =  4.15E-08,  avg # of iterations =  5.0

     negative rho (up, down):  3.852E-01 0.000E+00

     total cpu time spent up to now is        1.0 secs

     total energy              =      -2.04215003 Ry
     estimated scf accuracy    <       0.00000601 Ry

     iteration # 12     ecut=     5.00 Ry     beta= 0.70
     Davidson diagonalization with overlap

---- Real-time Memory Report at c_bands before calling an iterative solver
            55 MiB given to the printing process from OS
             0 MiB allocation reported by mallinfo(arena+hblkhd)
           522 MiB available memory on the node where the printing process lives
------------------
     ethr =  4.15E-08,  avg # of iterations = 10.0

     negative rho (up, down):  3.848E-01 0.000E+00

     total cpu time spent up to now is        1.1 secs

     total energy              =      -2.04237060 Ry
     estimated scf accuracy    <       0.00005241 Ry

     iteration # 13     ecut=     5.00 Ry     beta= 0.70
     Davidson diagonalization with overlap

---- Real-time Memory Report at c_bands before calling an iterative solver
            55 MiB given to the printing process from OS
             0 MiB allocation reported by mallinfo(arena+hblkhd)
           522 MiB available memory on the node where the printing process lives
------------------
     ethr =  4.15E-08,  avg # of iterations =  8.0

     negative rho (up, down):  3.847E-01 0.000E+00

     total cpu time spent up to now is        1.2 secs

     total energy              =      -2.04250755 Ry
     estimated scf accuracy    <       0.00000345 Ry

     iteration # 14     ecut=     5.00 Ry     beta= 0.70
     Davidson diagonalization with overlap

---- Real-time Memory Report at c_bands before calling an iterative solver
            55 MiB given to the printing process from OS
             0 MiB allocation reported by mallinfo(arena+hblkhd)
           522 MiB available memory on the node where the printing process lives
------------------
     ethr =  4.15E-08,  avg # of iterations =  4.0

     negative rho (up, down):  3.848E-01 0.000E+00

     total cpu time spent up to now is        1.3 secs

     total energy              =      -2.04251337 Ry
     estimated scf accuracy    <       0.00000114 Ry

     iteration # 15     ecut=     5.00 Ry     beta= 0.70
     Davidson diagonalization with overlap

---- Real-time Memory Report at c_bands before calling an iterative solver
            55 MiB given to the printing process from OS
             0 MiB allocation reported by mallinfo(arena+hblkhd)
           522 MiB available memory on the node where the printing process lives
------------------
     ethr =  4.15E-08,  avg # of iterations =  3.0

     negative rho (up, down):  3.846E-01 0.000E+00

     total cpu time spent up to now is        1.4 secs

     total energy              =      -2.04261521 Ry
     estimated scf accuracy    <       0.00000306 Ry

     iteration # 16     ecut=     5.00 Ry     beta= 0.70
     Davidson diagonalization with overlap

---- Real-time Memory Report at c_bands before calling an iterative solver
            55 MiB given to the printing process from OS
             0 MiB allocation reported by mallinfo(arena+hblkhd)
           522 MiB available memory on the node where the printing process lives
------------------
     ethr =  4.15E-08,  avg # of iterations =  4.0

     negative rho (up, down):  3.846E-01 0.000E+00

     total cpu time spent up to now is        1.5 secs

     total energy              =      -2.04257556 Ry
     estimated scf accuracy    <       0.00000350 Ry

     iteration # 17     ecut=     5.00 Ry     beta= 0.70
     Davidson diagonalization with overlap

---- Real-time Memory Report at c_bands before calling an iterative solver
            55 MiB given to the printing process from OS
             0 MiB allocation reported by mallinfo(arena+hblkhd)
           522 MiB available memory on the node where the printing process lives
------------------
     ethr =  4.15E-08,  avg # of iterations =  3.0

     negative rho (up, down):  3.846E-01 0.000E+00

     total cpu time spent up to now is        1.5 secs

     total energy              =      -2.04249572 Ry
     estimated scf accuracy    <       0.00000259 Ry

     iteration # 18     ecut=     5.00 Ry     beta= 0.70
     Davidson diagonalization with overlap

---- Real-time Memory Report at c_bands before calling an iterative solver
            55 MiB given to the printing process from OS
             0 MiB allocation reported by mallinfo(arena+hblkhd)
           522 MiB available memory on the node where the printing process lives
------------------
     ethr =  4.15E-08,  avg # of iterations =  3.0

     negative rho (up, down):  3.847E-01 0.000E+00

     total cpu time spent up to now is        1.6 secs

     total energy              =      -2.04256006 Ry
     estimated scf accuracy    <       0.00000008 Ry

     iteration # 19     ecut=     5.00 Ry     beta= 0.70
     Davidson diagonalization with overlap

---- Real-time Memory Report at c_bands before calling an iterative solver
            55 MiB given to the printing process from OS
             0 MiB allocation reported by mallinfo(arena+hblkhd)
           522 MiB available memory on the node where the printing process lives
------------------
     ethr =  3.95E-09,  avg # of iterations =  4.0

     negative rho (up, down):  3.847E-01 0.000E+00

     total cpu time spent up to now is        1.7 secs

     total energy              =      -2.04256373 Ry
     estimated scf accuracy    <       0.00000032 Ry

     iteration # 20     ecut=     5.00 Ry     beta= 0.70
     Davidson diagonalization with overlap

---- Real-time Memory Report at c_bands before calling an iterative solver
            55 MiB given to the printing process from OS
             0 MiB allocation reported by mallinfo(arena+hblkhd)
           522 MiB available memory on the node where the printing process lives
------------------
     ethr =  3.95E-09,  avg # of iterations =  3.0

     negative rho (up, down):  3.847E-01 0.000E+00

     total cpu time spent up to now is        1.8 secs

     total energy              =      -2.04256029 Ry
     estimated scf accuracy    <       0.00000026 Ry

     iteration # 21     ecut=     5.00 Ry     beta= 0.70
     Davidson diagonalization with overlap

---- Real-time Memory Report at c_bands before calling an iterative solver
            55 MiB given to the printing process from OS
             0 MiB allocation reported by mallinfo(arena+hblkhd)
           522 MiB available memory on the node where the printing process lives
------------------
     ethr =  3.95E-09,  avg # of iterations =  4.0

     negative rho (up, down):  3.847E-01 0.000E+00

     total cpu time spent up to now is        1.8 secs

     total energy              =      -2.04254778 Ry
     estimated scf accuracy    <       0.00000010 Ry

     iteration # 22     ecut=     5.00 Ry     beta= 0.70
     Davidson diagonalization with overlap

---- Real-time Memory Report at c_bands before calling an iterative solver
            55 MiB given to the printing process from OS
             0 MiB allocation reported by mallinfo(arena+hblkhd)
           522 MiB available memory on the node where the printing process lives
------------------
     ethr =  3.95E-09,  avg # of iterations =  3.0

     negative rho (up, down):  3.846E-01 0.000E+00

     total cpu time spent up to now is        1.9 secs

     total energy              =      -2.04256261 Ry
     estimated scf accuracy    <       0.00000012 Ry

     iteration # 23     ecut=     5.00 Ry     beta= 0.70
     Davidson diagonalization with overlap

---- Real-time Memory Report at c_bands before calling an iterative solver
            55 MiB given to the printing process from OS
             0 MiB allocation reported by mallinfo(arena+hblkhd)
           522 MiB available memory on the node where the printing process lives
------------------
     ethr =  3.95E-09,  avg # of iterations =  3.0

     negative rho (up, down):  3.846E-01 0.000E+00

     total cpu time spent up to now is        2.0 secs

     total energy              =      -2.04261760 Ry
     estimated scf accuracy    <       0.00000020 Ry

     iteration # 24     ecut=     5.00 Ry     beta= 0.70
     Davidson diagonalization with overlap

---- Real-time Memory Report at c_bands before calling an iterative solver
            55 MiB given to the printing process from OS
             0 MiB allocation reported by mallinfo(arena+hblkhd)
           522 MiB available memory on the node where the printing process lives
------------------
     ethr =  3.95E-09,  avg # of iterations =  4.0

     negative rho (up, down):  3.846E-01 0.000E+00

     total cpu time spent up to now is        2.1 secs

     total energy              =      -2.04246936 Ry
     estimated scf accuracy    <       0.00000086 Ry

     iteration # 25     ecut=     5.00 Ry     beta= 0.70
     Davidson diagonalization with overlap

---- Real-time Memory Report at c_bands before calling an iterative solver
            55 MiB given to the printing process from OS
             0 MiB allocation reported by mallinfo(arena+hblkhd)
           522 MiB available memory on the node where the printing process lives
------------------
     ethr =  3.95E-09,  avg # of iterations =  4.0

     negative rho (up, down):  3.845E-01 0.000E+00

     total cpu time spent up to now is        2.1 secs

     total energy              =      -2.04258171 Ry
     estimated scf accuracy    <       0.00000010 Ry

     iteration # 26     ecut=     5.00 Ry     beta= 0.70
     Davidson diagonalization with overlap

---- Real-time Memory Report at c_bands before calling an iterative solver
            55 MiB given to the printing process from OS
             0 MiB allocation reported by mallinfo(arena+hblkhd)
           522 MiB available memory on the node where the printing process lives
------------------
     ethr =  3.95E-09,  avg # of iterations =  4.0

     negative rho (up, down):  3.847E-01 0.000E+00

     total cpu time spent up to now is        2.2 secs

     total energy              =      -2.04253425 Ry
     estimated scf accuracy    <       0.00000147 Ry

     iteration # 27     ecut=     5.00 Ry     beta= 0.70
     Davidson diagonalization with overlap

---- Real-time Memory Report at c_bands before calling an iterative solver
            55 MiB given to the printing process from OS
             0 MiB allocation reported by mallinfo(arena+hblkhd)
           522 MiB available memory on the node where the printing process lives
------------------
     ethr =  3.95E-09,  avg # of iterations =  4.0

     negative rho (up, down):  3.858E-01 0.000E+00

     total cpu time spent up to now is        2.3 secs

     total energy              =      -2.04204672 Ry
     estimated scf accuracy    <       0.00000058 Ry

     iteration # 28     ecut=     5.00 Ry     beta= 0.70
     Davidson diagonalization with overlap

---- Real-time Memory Report at c_bands before calling an iterative solver
            55 MiB given to the printing process from OS
             0 MiB allocation reported by mallinfo(arena+hblkhd)
           522 MiB available memory on the node where the printing process lives
------------------
     ethr =  3.95E-09,  avg # of iterations =  4.0

     negative rho (up, down):  3.853E-01 0.000E+00

     total cpu time spent up to now is        2.4 secs

     total energy              =      -2.04230204 Ry
     estimated scf accuracy    <       0.00000343 Ry

     iteration # 29     ecut=     5.00 Ry     beta= 0.70
     Davidson diagonalization with overlap

---- Real-time Memory Report at c_bands before calling an iterative solver
            55 MiB given to the printing process from OS
             0 MiB allocation reported by mallinfo(arena+hblkhd)
           522 MiB available memory on the node where the printing process lives
------------------
     ethr =  3.95E-09,  avg # of iterations =  5.0

     negative rho (up, down):  3.849E-01 0.000E+00

     total cpu time spent up to now is        2.5 secs

     total energy              =      -2.04197650 Ry
     estimated scf accuracy    <       0.00005081 Ry

     iteration # 30     ecut=     5.00 Ry     beta= 0.70
     Davidson diagonalization with overlap

---- Real-time Memory Report at c_bands before calling an iterative solver
            55 MiB given to the printing process from OS
             0 MiB allocation reported by mallinfo(arena+hblkhd)
           522 MiB available memory on the node where the printing process lives
------------------
     ethr =  3.95E-09,  avg # of iterations =  5.0

     negative rho (up, down):  3.848E-01 0.000E+00

     total cpu time spent up to now is        2.5 secs

     total energy              =      -2.04253392 Ry
     estimated scf accuracy    <       0.00000165 Ry

     iteration # 31     ecut=     5.00 Ry     beta= 0.70
     Davidson diagonalization with overlap

---- Real-time Memory Report at c_bands before calling an iterative solver
            55 MiB given to the printing process from OS
             0 MiB allocation reported by mallinfo(arena+hblkhd)
           522 MiB available memory on the node where the printing process lives
------------------
     ethr =  3.95E-09,  avg # of iterations =  4.0

     negative rho (up, down):  3.848E-01 0.000E+00

     total cpu time spent up to now is        2.6 secs

     total energy              =      -2.04254112 Ry
     estimated scf accuracy    <       0.00000045 Ry

     iteration # 32     ecut=     5.00 Ry     beta= 0.70
     Davidson diagonalization with overlap

---- Real-time Memory Report at c_bands before calling an iterative solver
            55 MiB given to the printing process from OS
             0 MiB allocation reported by mallinfo(arena+hblkhd)
           522 MiB available memory on the node where the printing process lives
------------------
     ethr =  3.95E-09,  avg # of iterations =  3.0

     negative rho (up, down):  3.853E-01 0.000E+00

     total cpu time spent up to now is        2.7 secs

     total energy              =      -2.04233565 Ry
     estimated scf accuracy    <       0.00000063 Ry

     iteration # 33     ecut=     5.00 Ry     beta= 0.70
     Davidson diagonalization with overlap

---- Real-time Memory Report at c_bands before calling an iterative solver
            55 MiB given to the printing process from OS
             0 MiB allocation reported by mallinfo(arena+hblkhd)
           522 MiB available memory on the node where the printing process lives
------------------
     ethr =  3.95E-09,  avg # of iterations =  5.0

     negative rho (up, down):  3.829E-01 0.000E+00

     total cpu time spent up to now is        2.8 secs

     total energy              =      -2.04311737 Ry
     estimated scf accuracy    <       0.00002052 Ry

     iteration # 34     ecut=     5.00 Ry     beta= 0.70
     Davidson diagonalization with overlap

---- Real-time Memory Report at c_bands before calling an iterative solver
            55 MiB given to the printing process from OS
             0 MiB allocation reported by mallinfo(arena+hblkhd)
           522 MiB available memory on the node where the printing process lives
------------------
     ethr =  3.95E-09,  avg # of iterations =  5.0

     negative rho (up, down):  3.850E-01 0.000E+00

     total cpu time spent up to now is        2.9 secs

     total energy              =      -2.04251396 Ry
     estimated scf accuracy    <       0.00000361 Ry

     iteration # 35     ecut=     5.00 Ry     beta= 0.70
     Davidson diagonalization with overlap

---- Real-time Memory Report at c_bands before calling an iterative solver
            55 MiB given to the printing process from OS
             0 MiB allocation reported by mallinfo(arena+hblkhd)
           522 MiB available memory on the node where the printing process lives
------------------
     ethr =  3.95E-09,  avg # of iterations =  4.0

     negative rho (up, down):  3.848E-01 0.000E+00

     total cpu time spent up to now is        2.9 secs

     total energy              =      -2.04250236 Ry
     estimated scf accuracy    <       0.00000556 Ry

     iteration # 36     ecut=     5.00 Ry     beta= 0.70
     Davidson diagonalization with overlap

---- Real-time Memory Report at c_bands before calling an iterative solver
            55 MiB given to the printing process from OS
             0 MiB allocation reported by mallinfo(arena+hblkhd)
           522 MiB available memory on the node where the printing process lives
------------------
     ethr =  3.95E-09,  avg # of iterations =  4.0

     negative rho (up, down):  3.848E-01 0.000E+00

     total cpu time spent up to now is        3.0 secs

     total energy              =      -2.04254149 Ry
     estimated scf accuracy    <       0.00000062 Ry

     iteration # 37     ecut=     5.00 Ry     beta= 0.70
     Davidson diagonalization with overlap

---- Real-time Memory Report at c_bands before calling an iterative solver
            55 MiB given to the printing process from OS
             0 MiB allocation reported by mallinfo(arena+hblkhd)
           522 MiB available memory on the node where the printing process lives
------------------
     ethr =  3.95E-09,  avg # of iterations =  3.0

     negative rho (up, down):  3.848E-01 0.000E+00

     total cpu time spent up to now is        3.1 secs

     total energy              =      -2.04248616 Ry
     estimated scf accuracy    <       0.00000036 Ry

     iteration # 38     ecut=     5.00 Ry     beta= 0.70
     Davidson diagonalization with overlap

---- Real-time Memory Report at c_bands before calling an iterative solver
            55 MiB given to the printing process from OS
             0 MiB allocation reported by mallinfo(arena+hblkhd)
           522 MiB available memory on the node where the printing process lives
------------------
     ethr =  3.95E-09,  avg # of iterations =  3.0

     negative rho (up, down):  3.848E-01 0.000E+00

     total cpu time spent up to now is        3.2 secs

     total energy              =      -2.04253643 Ry
     estimated scf accuracy    <       0.00000016 Ry

     iteration # 39     ecut=     5.00 Ry     beta= 0.70
     Davidson diagonalization with overlap

---- Real-time Memory Report at c_bands before calling an iterative solver
            55 MiB given to the printing process from OS
             0 MiB allocation reported by mallinfo(arena+hblkhd)
           522 MiB available memory on the node where the printing process lives
------------------
     ethr =  3.95E-09,  avg # of iterations =  3.0

     negative rho (up, down):  3.847E-01 0.000E+00

     total cpu time spent up to now is        3.2 secs

     total energy              =      -2.04254709 Ry
     estimated scf accuracy    <       0.00000005 Ry

     iteration # 40     ecut=     5.00 Ry     beta= 0.70
     Davidson diagonalization with overlap

---- Real-time Memory Report at c_bands before calling an iterative solver
            55 MiB given to the printing process from OS
             0 MiB allocation reported by mallinfo(arena+hblkhd)
           522 MiB available memory on the node where the printing process lives
------------------
     ethr =  2.35E-09,  avg # of iterations =  3.0

     negative rho (up, down):  3.847E-01 0.000E+00

     total cpu time spent up to now is        3.3 secs

     total energy              =      -2.04254729 Ry
     estimated scf accuracy    <       0.00000016 Ry

     iteration # 41     ecut=     5.00 Ry     beta= 0.70
     Davidson diagonalization with overlap

---- Real-time Memory Report at c_bands before calling an iterative solver
            55 MiB given to the printing process from OS
             0 MiB allocation reported by mallinfo(arena+hblkhd)
           522 MiB available memory on the node where the printing process lives
------------------
     ethr =  2.35E-09,  avg # of iterations =  3.0

     negative rho (up, down):  3.847E-01 0.000E+00

     total cpu time spent up to now is        3.4 secs

     total energy              =      -2.04254596 Ry
     estimated scf accuracy    <       0.00000009 Ry

     iteration # 42     ecut=     5.00 Ry     beta= 0.70
     Davidson diagonalization with overlap

---- Real-time Memory Report at c_bands before calling an iterative solver
            55 MiB given to the printing process from OS
             0 MiB allocation reported by mallinfo(arena+hblkhd)
           522 MiB available memory on the node where the printing process lives
------------------
     ethr =  2.35E-09,  avg # of iterations =  2.0

     negative rho (up, down):  3.846E-01 0.000E+00

     total cpu time spent up to now is        3.5 secs

     total energy              =      -2.04259990 Ry
     estimated scf accuracy    <       0.00000014 Ry

     iteration # 43     ecut=     5.00 Ry     beta= 0.70
     Davidson diagonalization with overlap

---- Real-time Memory Report at c_bands before calling an iterative solver
            55 MiB given to the printing process from OS
             0 MiB allocation reported by mallinfo(arena+hblkhd)
           522 MiB available memory on the node where the printing process lives
------------------
     ethr =  2.35E-09,  avg # of iterations =  4.0

     negative rho (up, down):  3.847E-01 0.000E+00

     total cpu time spent up to now is        3.5 secs

     total energy              =      -2.04253669 Ry
     estimated scf accuracy    <       0.00000035 Ry

     iteration # 44     ecut=     5.00 Ry     beta= 0.70
     Davidson diagonalization with overlap

---- Real-time Memory Report at c_bands before calling an iterative solver
            55 MiB given to the printing process from OS
             0 MiB allocation reported by mallinfo(arena+hblkhd)
           522 MiB available memory on the node where the printing process lives
------------------
     ethr =  2.35E-09,  avg # of iterations =  4.0

     negative rho (up, down):  3.846E-01 0.000E+00

     total cpu time spent up to now is        3.6 secs

     total energy              =      -2.04259569 Ry
     estimated scf accuracy    <       0.00000014 Ry

     iteration # 45     ecut=     5.00 Ry     beta= 0.70
     Davidson diagonalization with overlap

---- Real-time Memory Report at c_bands before calling an iterative solver
            55 MiB given to the printing process from OS
             0 MiB allocation reported by mallinfo(arena+hblkhd)
           522 MiB available memory on the node where the printing process lives
------------------
     ethr =  2.35E-09,  avg # of iterations =  4.0

     negative rho (up, down):  3.847E-01 0.000E+00

     total cpu time spent up to now is        3.7 secs

     total energy              =      -2.04253806 Ry
     estimated scf accuracy    <       0.00000021 Ry

     iteration # 46     ecut=     5.00 Ry     beta= 0.70
     Davidson diagonalization with overlap

---- Real-time Memory Report at c_bands before calling an iterative solver
            55 MiB given to the printing process from OS
             0 MiB allocation reported by mallinfo(arena+hblkhd)
           522 MiB available memory on the node where the printing process lives
------------------
     ethr =  2.35E-09,  avg # of iterations =  4.0

     negative rho (up, down):  3.849E-01 0.000E+00

     total cpu time spent up to now is        3.8 secs

     total energy              =      -2.04248468 Ry
     estimated scf accuracy    <       0.00000018 Ry

     iteration # 47     ecut=     5.00 Ry     beta= 0.70
     Davidson diagonalization with overlap

---- Real-time Memory Report at c_bands before calling an iterative solver
            55 MiB given to the printing process from OS
             0 MiB allocation reported by mallinfo(arena+hblkhd)
           522 MiB available memory on the node where the printing process lives
------------------
     ethr =  2.35E-09,  avg # of iterations =  4.0

     negative rho (up, down):  3.848E-01 0.000E+00

     total cpu time spent up to now is        3.9 secs

     total energy              =      -2.04248455 Ry
     estimated scf accuracy    <       0.00000055 Ry

     iteration # 48     ecut=     5.00 Ry     beta= 0.70
     Davidson diagonalization with overlap

---- Real-time Memory Report at c_bands before calling an iterative solver
            55 MiB given to the printing process from OS
             0 MiB allocation reported by mallinfo(arena+hblkhd)
           522 MiB available memory on the node where the printing process lives
------------------
     ethr =  2.35E-09,  avg # of iterations =  4.0

     negative rho (up, down):  3.847E-01 0.000E+00

     total cpu time spent up to now is        3.9 secs

     total energy              =      -2.04253921 Ry
     estimated scf accuracy    <       0.00000008 Ry

     iteration # 49     ecut=     5.00 Ry     beta= 0.70
     Davidson diagonalization with overlap

---- Real-time Memory Report at c_bands before calling an iterative solver
            55 MiB given to the printing process from OS
             0 MiB allocation reported by mallinfo(arena+hblkhd)
           522 MiB available memory on the node where the printing process lives
------------------
     ethr =  2.35E-09,  avg # of iterations =  4.0

     negative rho (up, down):  3.848E-01 0.000E+00

     total cpu time spent up to now is        4.0 secs

     total energy              =      -2.04259226 Ry
     estimated scf accuracy    <       0.00000025 Ry

     iteration # 50     ecut=     5.00 Ry     beta= 0.70
     Davidson diagonalization with overlap

---- Real-time Memory Report at c_bands before calling an iterative solver
            55 MiB given to the printing process from OS
             0 MiB allocation reported by mallinfo(arena+hblkhd)
           522 MiB available memory on the node where the printing process lives
------------------
     ethr =  2.35E-09,  avg # of iterations =  4.0

     negative rho (up, down):  3.848E-01 0.000E+00

     total cpu time spent up to now is        4.1 secs

     total energy              =      -2.04253187 Ry
     estimated scf accuracy    <       0.00000010 Ry

     iteration # 51     ecut=     5.00 Ry     beta= 0.70
     Davidson diagonalization with overlap

---- Real-time Memory Report at c_bands before calling an iterative solver
            55 MiB given to the printing process from OS
             0 MiB allocation reported by mallinfo(arena+hblkhd)
           522 MiB available memory on the node where the printing process lives
------------------
     ethr =  2.35E-09,  avg # of iterations =  4.0

     negative rho (up, down):  3.848E-01 0.000E+00

     total cpu time spent up to now is        4.2 secs

     total energy              =      -2.04253883 Ry
     estimated scf accuracy    <       0.00000012 Ry

     iteration # 52     ecut=     5.00 Ry     beta= 0.70
     Davidson diagonalization with overlap

---- Real-time Memory Report at c_bands before calling an iterative solver
            55 MiB given to the printing process from OS
             0 MiB allocation reported by mallinfo(arena+hblkhd)
           522 MiB available memory on the node where the printing process lives
------------------
     ethr =  2.35E-09,  avg # of iterations =  4.0

     negative rho (up, down):  3.847E-01 0.000E+00

     total cpu time spent up to now is        4.2 secs

     total energy              =      -2.04260356 Ry
     estimated scf accuracy    <       0.00000037 Ry

     iteration # 53     ecut=     5.00 Ry     beta= 0.70
     Davidson diagonalization with overlap

---- Real-time Memory Report at c_bands before calling an iterative solver
            55 MiB given to the printing process from OS
             0 MiB allocation reported by mallinfo(arena+hblkhd)
           522 MiB available memory on the node where the printing process lives
------------------
     ethr =  2.35E-09,  avg # of iterations =  3.0

     negative rho (up, down):  3.847E-01 0.000E+00

     total cpu time spent up to now is        4.3 secs

     total energy              =      -2.04260568 Ry
     estimated scf accuracy    <       0.00000017 Ry

     iteration # 54     ecut=     5.00 Ry     beta= 0.70
     Davidson diagonalization with overlap

---- Real-time Memory Report at c_bands before calling an iterative solver
            55 MiB given to the printing process from OS
             0 MiB allocation reported by mallinfo(arena+hblkhd)
           522 MiB available memory on the node where the printing process lives
------------------
     ethr =  2.35E-09,  avg # of iterations =  2.0

     negative rho (up, down):  3.847E-01 0.000E+00

     total cpu time spent up to now is        4.4 secs

     total energy              =      -2.04260628 Ry
     estimated scf accuracy    <       0.00000016 Ry

     iteration # 55     ecut=     5.00 Ry     beta= 0.70
     Davidson diagonalization with overlap

---- Real-time Memory Report at c_bands before calling an iterative solver
            55 MiB given to the printing process from OS
             0 MiB allocation reported by mallinfo(arena+hblkhd)
           522 MiB available memory on the node where the printing process lives
------------------
     ethr =  2.35E-09,  avg # of iterations =  2.0

     negative rho (up, down):  3.847E-01 0.000E+00

     total cpu time spent up to now is        4.5 secs

     total energy              =      -2.04260696 Ry
     estimated scf accuracy    <       0.00000013 Ry

     iteration # 56     ecut=     5.00 Ry     beta= 0.70
     Davidson diagonalization with overlap

---- Real-time Memory Report at c_bands before calling an iterative solver
            55 MiB given to the printing process from OS
             0 MiB allocation reported by mallinfo(arena+hblkhd)
           522 MiB available memory on the node where the printing process lives
------------------
     ethr =  2.35E-09,  avg # of iterations =  2.0

     negative rho (up, down):  3.847E-01 0.000E+00

     total cpu time spent up to now is        4.5 secs

     total energy              =      -2.04254890 Ry
     estimated scf accuracy    <       0.00000015 Ry

     iteration # 57     ecut=     5.00 Ry     beta= 0.70
     Davidson diagonalization with overlap

---- Real-time Memory Report at c_bands before calling an iterative solver
            55 MiB given to the printing process from OS
             0 MiB allocation reported by mallinfo(arena+hblkhd)
           522 MiB available memory on the node where the printing process lives
------------------
     ethr =  2.35E-09,  avg # of iterations =  4.0

     negative rho (up, down):  3.847E-01 0.000E+00

     total cpu time spent up to now is        4.6 secs

     total energy              =      -2.04260200 Ry
     estimated scf accuracy    <       0.00000038 Ry

     iteration # 58     ecut=     5.00 Ry     beta= 0.70
     Davidson diagonalization with overlap

---- Real-time Memory Report at c_bands before calling an iterative solver
            55 MiB given to the printing process from OS
             0 MiB allocation reported by mallinfo(arena+hblkhd)
           522 MiB available memory on the node where the printing process lives
------------------
     ethr =  2.35E-09,  avg # of iterations =  4.0

     negative rho (up, down):  3.848E-01 0.000E+00

     total cpu time spent up to now is        4.7 secs

     total energy              =      -2.04254942 Ry
     estimated scf accuracy    <       0.00000015 Ry

     iteration # 59     ecut=     5.00 Ry     beta= 0.70
     Davidson diagonalization with overlap

---- Real-time Memory Report at c_bands before calling an iterative solver
            55 MiB given to the printing process from OS
             0 MiB allocation reported by mallinfo(arena+hblkhd)
           522 MiB available memory on the node where the printing process lives
------------------
     ethr =  2.35E-09,  avg # of iterations =  3.0

     negative rho (up, down):  3.849E-01 0.000E+00

     total cpu time spent up to now is        4.8 secs

     total energy              =      -2.04253667 Ry
     estimated scf accuracy    <       0.00000034 Ry

     iteration # 60     ecut=     5.00 Ry     beta= 0.70
     Davidson diagonalization with overlap

---- Real-time Memory Report at c_bands before calling an iterative solver
            55 MiB given to the printing process from OS
             0 MiB allocation reported by mallinfo(arena+hblkhd)
           522 MiB available memory on the node where the printing process lives
------------------
     ethr =  2.35E-09,  avg # of iterations =  3.0

     negative rho (up, down):  3.829E-01 0.000E+00

     total cpu time spent up to now is        4.8 secs

     total energy              =      -2.04319460 Ry
     estimated scf accuracy    <       0.00000064 Ry

     iteration # 61     ecut=     5.00 Ry     beta= 0.70
     Davidson diagonalization with overlap

---- Real-time Memory Report at c_bands before calling an iterative solver
            55 MiB given to the printing process from OS
             0 MiB allocation reported by mallinfo(arena+hblkhd)
           522 MiB available memory on the node where the printing process lives
------------------
     ethr =  2.35E-09,  avg # of iterations =  5.0

     negative rho (up, down):  3.830E-01 0.000E+00

     total cpu time spent up to now is        4.9 secs

     total energy              =      -2.04324738 Ry
     estimated scf accuracy    <       0.00000364 Ry

     iteration # 62     ecut=     5.00 Ry     beta= 0.70
     Davidson diagonalization with overlap

---- Real-time Memory Report at c_bands before calling an iterative solver
            55 MiB given to the printing process from OS
             0 MiB allocation reported by mallinfo(arena+hblkhd)
           522 MiB available memory on the node where the printing process lives
------------------
     ethr =  2.35E-09,  avg # of iterations =  3.0

     negative rho (up, down):  3.851E-01 0.000E+00

     total cpu time spent up to now is        5.0 secs

     total energy              =      -2.04253953 Ry
     estimated scf accuracy    <       0.00000289 Ry

     iteration # 63     ecut=     5.00 Ry     beta= 0.70
     Davidson diagonalization with overlap

---- Real-time Memory Report at c_bands before calling an iterative solver
            55 MiB given to the printing process from OS
             0 MiB allocation reported by mallinfo(arena+hblkhd)
           522 MiB available memory on the node where the printing process lives
------------------
     ethr =  2.35E-09,  avg # of iterations =  5.0

     negative rho (up, down):  3.854E-01 0.000E+00

     total cpu time spent up to now is        5.1 secs

     total energy              =      -2.04223057 Ry
     estimated scf accuracy    <       0.00000878 Ry

     iteration # 64     ecut=     5.00 Ry     beta= 0.70
     Davidson diagonalization with overlap

---- Real-time Memory Report at c_bands before calling an iterative solver
            55 MiB given to the printing process from OS
             0 MiB allocation reported by mallinfo(arena+hblkhd)
           522 MiB available memory on the node where the printing process lives
------------------
     ethr =  2.35E-09,  avg # of iterations =  4.0

     negative rho (up, down):  3.849E-01 0.000E+00

     total cpu time spent up to now is        5.2 secs

     total energy              =      -2.04248775 Ry
     estimated scf accuracy    <       0.00000873 Ry

     iteration # 65     ecut=     5.00 Ry     beta= 0.70
     Davidson diagonalization with overlap

---- Real-time Memory Report at c_bands before calling an iterative solver
            55 MiB given to the printing process from OS
             0 MiB allocation reported by mallinfo(arena+hblkhd)
           522 MiB available memory on the node where the printing process lives
------------------
     ethr =  2.35E-09,  avg # of iterations =  4.0

     negative rho (up, down):  3.848E-01 0.000E+00

     total cpu time spent up to now is        5.2 secs

     total energy              =      -2.04247839 Ry
     estimated scf accuracy    <       0.00000171 Ry

     iteration # 66     ecut=     5.00 Ry     beta= 0.70
     Davidson diagonalization with overlap

---- Real-time Memory Report at c_bands before calling an iterative solver
            55 MiB given to the printing process from OS
             0 MiB allocation reported by mallinfo(arena+hblkhd)
           522 MiB available memory on the node where the printing process lives
------------------
     ethr =  2.35E-09,  avg # of iterations =  4.0

     negative rho (up, down):  3.848E-01 0.000E+00

     total cpu time spent up to now is        5.3 secs

     total energy              =      -2.04254100 Ry
     estimated scf accuracy    <       0.00000016 Ry

     iteration # 67     ecut=     5.00 Ry     beta= 0.70
     Davidson diagonalization with overlap

---- Real-time Memory Report at c_bands before calling an iterative solver
            55 MiB given to the printing process from OS
             0 MiB allocation reported by mallinfo(arena+hblkhd)
           522 MiB available memory on the node where the printing process lives
------------------
     ethr =  2.35E-09,  avg # of iterations =  3.0

     negative rho (up, down):  3.847E-01 0.000E+00

     total cpu time spent up to now is        5.4 secs

     total energy              =      -2.04254424 Ry
     estimated scf accuracy    <       0.00000006 Ry

     iteration # 68     ecut=     5.00 Ry     beta= 0.70
     Davidson diagonalization with overlap

---- Real-time Memory Report at c_bands before calling an iterative solver
            55 MiB given to the printing process from OS
             0 MiB allocation reported by mallinfo(arena+hblkhd)
           522 MiB available memory on the node where the printing process lives
------------------
     ethr =  2.35E-09,  avg # of iterations =  3.0

     negative rho (up, down):  3.847E-01 0.000E+00

     total cpu time spent up to now is        5.5 secs

     total energy              =      -2.04254200 Ry
     estimated scf accuracy    <       0.00000011 Ry

     iteration # 69     ecut=     5.00 Ry     beta= 0.70
     Davidson diagonalization with overlap

---- Real-time Memory Report at c_bands before calling an iterative solver
            55 MiB given to the printing process from OS
             0 MiB allocation reported by mallinfo(arena+hblkhd)
           522 MiB available memory on the node where the printing process lives
------------------
     ethr =  2.35E-09,  avg # of iterations =  2.0

     negative rho (up, down):  3.847E-01 0.000E+00

     total cpu time spent up to now is        5.5 secs

     total energy              =      -2.04255957 Ry
     estimated scf accuracy    <       0.00000010 Ry

     iteration # 70     ecut=     5.00 Ry     beta= 0.70
     Davidson diagonalization with overlap

---- Real-time Memory Report at c_bands before calling an iterative solver
            55 MiB given to the printing process from OS
             0 MiB allocation reported by mallinfo(arena+hblkhd)
           522 MiB available memory on the node where the printing process lives
------------------
     ethr =  2.35E-09,  avg # of iterations =  4.0

     negative rho (up, down):  3.847E-01 0.000E+00

     total cpu time spent up to now is        5.6 secs

     total energy              =      -2.04256112 Ry
     estimated scf accuracy    <       0.00000051 Ry

     iteration # 71     ecut=     5.00 Ry     beta= 0.70
     Davidson diagonalization with overlap

---- Real-time Memory Report at c_bands before calling an iterative solver
            55 MiB given to the printing process from OS
             0 MiB allocation reported by mallinfo(arena+hblkhd)
           522 MiB available memory on the node where the printing process lives
------------------
     ethr =  2.35E-09,  avg # of iterations =  3.0

     negative rho (up, down):  3.847E-01 0.000E+00

     total cpu time spent up to now is        5.7 secs

     total energy              =      -2.04254904 Ry
     estimated scf accuracy    <       0.00000041 Ry

     iteration # 72     ecut=     5.00 Ry     beta= 0.70
     Davidson diagonalization with overlap

---- Real-time Memory Report at c_bands before calling an iterative solver
            55 MiB given to the printing process from OS
             0 MiB allocation reported by mallinfo(arena+hblkhd)
           522 MiB available memory on the node where the printing process lives
------------------
     ethr =  2.35E-09,  avg # of iterations =  3.0

     negative rho (up, down):  3.847E-01 0.000E+00

     total cpu time spent up to now is        5.7 secs

     total energy              =      -2.04254415 Ry
     estimated scf accuracy    <       0.00000018 Ry

     iteration # 73     ecut=     5.00 Ry     beta= 0.70
     Davidson diagonalization with overlap

---- Real-time Memory Report at c_bands before calling an iterative solver
            55 MiB given to the printing process from OS
             0 MiB allocation reported by mallinfo(arena+hblkhd)
           522 MiB available memory on the node where the printing process lives
------------------
     ethr =  2.35E-09,  avg # of iterations =  2.0

     negative rho (up, down):  3.848E-01 0.000E+00

     total cpu time spent up to now is        5.8 secs

     total energy              =      -2.04259055 Ry
     estimated scf accuracy    <       0.00000015 Ry

     iteration # 74     ecut=     5.00 Ry     beta= 0.70
     Davidson diagonalization with overlap

---- Real-time Memory Report at c_bands before calling an iterative solver
            55 MiB given to the printing process from OS
             0 MiB allocation reported by mallinfo(arena+hblkhd)
           522 MiB available memory on the node where the printing process lives
------------------
     ethr =  2.35E-09,  avg # of iterations =  4.0

     negative rho (up, down):  3.847E-01 0.000E+00

     total cpu time spent up to now is        5.9 secs

     total energy              =      -2.04255315 Ry
     estimated scf accuracy    <       0.00000014 Ry

     iteration # 75     ecut=     5.00 Ry     beta= 0.70
     Davidson diagonalization with overlap

---- Real-time Memory Report at c_bands before calling an iterative solver
            55 MiB given to the printing process from OS
             0 MiB allocation reported by mallinfo(arena+hblkhd)
           522 MiB available memory on the node where the printing process lives
------------------
     ethr =  2.35E-09,  avg # of iterations =  4.0

     negative rho (up, down):  3.847E-01 0.000E+00

     total cpu time spent up to now is        6.0 secs

     total energy              =      -2.04255672 Ry
     estimated scf accuracy    <       0.00000006 Ry

     iteration # 76     ecut=     5.00 Ry     beta= 0.70
     Davidson diagonalization with overlap

---- Real-time Memory Report at c_bands before calling an iterative solver
            55 MiB given to the printing process from OS
             0 MiB allocation reported by mallinfo(arena+hblkhd)
           522 MiB available memory on the node where the printing process lives
------------------
     ethr =  2.35E-09,  avg # of iterations =  3.0

     negative rho (up, down):  3.847E-01 0.000E+00

     total cpu time spent up to now is        6.0 secs

     total energy              =      -2.04255483 Ry
     estimated scf accuracy    <       0.00000010 Ry

     iteration # 77     ecut=     5.00 Ry     beta= 0.70
     Davidson diagonalization with overlap

---- Real-time Memory Report at c_bands before calling an iterative solver
            55 MiB given to the printing process from OS
             0 MiB allocation reported by mallinfo(arena+hblkhd)
           522 MiB available memory on the node where the printing process lives
------------------
     ethr =  2.35E-09,  avg # of iterations =  3.0

     negative rho (up, down):  3.847E-01 0.000E+00

     total cpu time spent up to now is        6.1 secs

     total energy              =      -2.04251964 Ry
     estimated scf accuracy    <       0.00000004 Ry

     iteration # 78     ecut=     5.00 Ry     beta= 0.70
     Davidson diagonalization with overlap

---- Real-time Memory Report at c_bands before calling an iterative solver
            55 MiB given to the printing process from OS
             0 MiB allocation reported by mallinfo(arena+hblkhd)
           522 MiB available memory on the node where the printing process lives
------------------
     ethr =  2.22E-09,  avg # of iterations =  4.0

     negative rho (up, down):  3.847E-01 0.000E+00

     total cpu time spent up to now is        6.2 secs

     total energy              =      -2.04255570 Ry
     estimated scf accuracy    <       0.00000008 Ry

     iteration # 79     ecut=     5.00 Ry     beta= 0.70
     Davidson diagonalization with overlap

---- Real-time Memory Report at c_bands before calling an iterative solver
            55 MiB given to the printing process from OS
             0 MiB allocation reported by mallinfo(arena+hblkhd)
           522 MiB available memory on the node where the printing process lives
------------------
     ethr =  2.22E-09,  avg # of iterations =  4.0

     negative rho (up, down):  3.846E-01 0.000E+00

     total cpu time spent up to now is        6.3 secs

     total energy              =      -2.04250358 Ry
     estimated scf accuracy    <       0.00000007 Ry

     iteration # 80     ecut=     5.00 Ry     beta= 0.70
     Davidson diagonalization with overlap

---- Real-time Memory Report at c_bands before calling an iterative solver
            55 MiB given to the printing process from OS
             0 MiB allocation reported by mallinfo(arena+hblkhd)
           522 MiB available memory on the node where the printing process lives
------------------
     ethr =  2.22E-09,  avg # of iterations =  5.0

     negative rho (up, down):  3.847E-01 0.000E+00

     total cpu time spent up to now is        6.4 secs

     total energy              =      -2.04250806 Ry
     estimated scf accuracy    <       0.00000069 Ry

     iteration # 81     ecut=     5.00 Ry     beta= 0.70
     Davidson diagonalization with overlap

---- Real-time Memory Report at c_bands before calling an iterative solver
            55 MiB given to the printing process from OS
             0 MiB allocation reported by mallinfo(arena+hblkhd)
           522 MiB available memory on the node where the printing process lives
------------------
     ethr =  2.22E-09,  avg # of iterations =  5.0

     negative rho (up, down):  3.848E-01 0.000E+00

     total cpu time spent up to now is        6.4 secs

     total energy              =      -2.04253655 Ry
     estimated scf accuracy    <       0.00000007 Ry

     iteration # 82     ecut=     5.00 Ry     beta= 0.70
     Davidson diagonalization with overlap

---- Real-time Memory Report at c_bands before calling an iterative solver
            55 MiB given to the printing process from OS
             0 MiB allocation reported by mallinfo(arena+hblkhd)
           522 MiB available memory on the node where the printing process lives
------------------
     ethr =  2.22E-09,  avg # of iterations =  3.0

     negative rho (up, down):  3.847E-01 0.000E+00

     total cpu time spent up to now is        6.5 secs

     total energy              =      -2.04255081 Ry
     estimated scf accuracy    <       0.00000017 Ry

     iteration # 83     ecut=     5.00 Ry     beta= 0.70
     Davidson diagonalization with overlap

---- Real-time Memory Report at c_bands before calling an iterative solver
            55 MiB given to the printing process from OS
             0 MiB allocation reported by mallinfo(arena+hblkhd)
           522 MiB available memory on the node where the printing process lives
------------------
     ethr =  2.22E-09,  avg # of iterations =  3.0

     negative rho (up, down):  3.852E-01 0.000E+00

     total cpu time spent up to now is        6.6 secs

     total energy              =      -2.04235941 Ry
     estimated scf accuracy    <       0.00000010 Ry

     iteration # 84     ecut=     5.00 Ry     beta= 0.70
     Davidson diagonalization with overlap

---- Real-time Memory Report at c_bands before calling an iterative solver
            55 MiB given to the printing process from OS
             0 MiB allocation reported by mallinfo(arena+hblkhd)
           522 MiB available memory on the node where the printing process lives
------------------
     ethr =  2.22E-09,  avg # of iterations =  4.0

     negative rho (up, down):  3.849E-01 0.000E+00

     total cpu time spent up to now is        6.7 secs

     total energy              =      -2.04262351 Ry
     estimated scf accuracy    <       0.00000205 Ry

     iteration # 85     ecut=     5.00 Ry     beta= 0.70
     Davidson diagonalization with overlap

---- Real-time Memory Report at c_bands before calling an iterative solver
            55 MiB given to the printing process from OS
             0 MiB allocation reported by mallinfo(arena+hblkhd)
           522 MiB available memory on the node where the printing process lives
------------------
     ethr =  2.22E-09,  avg # of iterations =  3.0

     negative rho (up, down):  3.847E-01 0.000E+00

     total cpu time spent up to now is        6.7 secs

     total energy              =      -2.04253637 Ry
     estimated scf accuracy    <       0.00000105 Ry

     iteration # 86     ecut=     5.00 Ry     beta= 0.70
     Davidson diagonalization with overlap

---- Real-time Memory Report at c_bands before calling an iterative solver
            55 MiB given to the printing process from OS
             0 MiB allocation reported by mallinfo(arena+hblkhd)
           522 MiB available memory on the node where the printing process lives
------------------
     ethr =  2.22E-09,  avg # of iterations =  4.0

     negative rho (up, down):  3.847E-01 0.000E+00

     total cpu time spent up to now is        6.8 secs

     total energy              =      -2.04251134 Ry
     estimated scf accuracy    <       0.00000009 Ry

     iteration # 87     ecut=     5.00 Ry     beta= 0.70
     Davidson diagonalization with overlap

---- Real-time Memory Report at c_bands before calling an iterative solver
            55 MiB given to the printing process from OS
             0 MiB allocation reported by mallinfo(arena+hblkhd)
           522 MiB available memory on the node where the printing process lives
------------------
     ethr =  2.22E-09,  avg # of iterations =  4.0

     negative rho (up, down):  3.848E-01 0.000E+00

     total cpu time spent up to now is        6.9 secs

     total energy              =      -2.04253617 Ry
     estimated scf accuracy    <       0.00000003 Ry

     iteration # 88     ecut=     5.00 Ry     beta= 0.70
     Davidson diagonalization with overlap

---- Real-time Memory Report at c_bands before calling an iterative solver
            55 MiB given to the printing process from OS
             0 MiB allocation reported by mallinfo(arena+hblkhd)
           522 MiB available memory on the node where the printing process lives
------------------
     ethr =  1.48E-09,  avg # of iterations =  4.0

     negative rho (up, down):  3.848E-01 0.000E+00

     total cpu time spent up to now is        7.0 secs

     total energy              =      -2.04253751 Ry
     estimated scf accuracy    <       0.00000019 Ry

     iteration # 89     ecut=     5.00 Ry     beta= 0.70
     Davidson diagonalization with overlap

---- Real-time Memory Report at c_bands before calling an iterative solver
            55 MiB given to the printing process from OS
             0 MiB allocation reported by mallinfo(arena+hblkhd)
           522 MiB available memory on the node where the printing process lives
------------------
     ethr =  1.48E-09,  avg # of iterations =  2.0

     negative rho (up, down):  3.847E-01 0.000E+00

     total cpu time spent up to now is        7.0 secs

     total energy              =      -2.04249753 Ry
     estimated scf accuracy    <       0.00000021 Ry

     iteration # 90     ecut=     5.00 Ry     beta= 0.70
     Davidson diagonalization with overlap

---- Real-time Memory Report at c_bands before calling an iterative solver
            55 MiB given to the printing process from OS
             0 MiB allocation reported by mallinfo(arena+hblkhd)
           522 MiB available memory on the node where the printing process lives
------------------
     ethr =  1.48E-09,  avg # of iterations =  4.0

     negative rho (up, down):  3.847E-01 0.000E+00

     total cpu time spent up to now is        7.1 secs

     total energy              =      -2.04250241 Ry
     estimated scf accuracy    <       0.00000006 Ry

     iteration # 91     ecut=     5.00 Ry     beta= 0.70
     Davidson diagonalization with overlap

---- Real-time Memory Report at c_bands before calling an iterative solver
            55 MiB given to the printing process from OS
             0 MiB allocation reported by mallinfo(arena+hblkhd)
           522 MiB available memory on the node where the printing process lives
------------------
     ethr =  1.48E-09,  avg # of iterations =  3.0

     negative rho (up, down):  3.846E-01 0.000E+00

     total cpu time spent up to now is        7.2 secs

     total energy              =      -2.04250686 Ry
     estimated scf accuracy    <       0.00000008 Ry

     iteration # 92     ecut=     5.00 Ry     beta= 0.70
     Davidson diagonalization with overlap

---- Real-time Memory Report at c_bands before calling an iterative solver
            55 MiB given to the printing process from OS
             0 MiB allocation reported by mallinfo(arena+hblkhd)
           522 MiB available memory on the node where the printing process lives
------------------
     ethr =  1.48E-09,  avg # of iterations =  4.0

     negative rho (up, down):  3.849E-01 0.000E+00

     total cpu time spent up to now is        7.3 secs

     total energy              =      -2.04253355 Ry
     estimated scf accuracy    <       0.00000030 Ry

     iteration # 93     ecut=     5.00 Ry     beta= 0.70
     Davidson diagonalization with overlap

---- Real-time Memory Report at c_bands before calling an iterative solver
            55 MiB given to the printing process from OS
             0 MiB allocation reported by mallinfo(arena+hblkhd)
           522 MiB available memory on the node where the printing process lives
------------------
     ethr =  1.48E-09,  avg # of iterations =  4.0

     negative rho (up, down):  3.845E-01 0.000E+00

     total cpu time spent up to now is        7.3 secs

     total energy              =      -2.04270337 Ry
     estimated scf accuracy    <       0.00000046 Ry

     iteration # 94     ecut=     5.00 Ry     beta= 0.70
     Davidson diagonalization with overlap

---- Real-time Memory Report at c_bands before calling an iterative solver
            55 MiB given to the printing process from OS
             0 MiB allocation reported by mallinfo(arena+hblkhd)
           522 MiB available memory on the node where the printing process lives
------------------
     ethr =  1.48E-09,  avg # of iterations =  4.0

     negative rho (up, down):  3.851E-01 0.000E+00

     total cpu time spent up to now is        7.4 secs

     total energy              =      -2.04264566 Ry
     estimated scf accuracy    <       0.00000012 Ry

     iteration # 95     ecut=     5.00 Ry     beta= 0.70
     Davidson diagonalization with overlap

---- Real-time Memory Report at c_bands before calling an iterative solver
            55 MiB given to the printing process from OS
             0 MiB allocation reported by mallinfo(arena+hblkhd)
           522 MiB available memory on the node where the printing process lives
------------------
     ethr =  1.48E-09,  avg # of iterations =  6.0

     negative rho (up, down):  3.852E-01 0.000E+00

     total cpu time spent up to now is        7.5 secs

     total energy              =      -2.04311832 Ry
     estimated scf accuracy    <       0.00002512 Ry

     iteration # 96     ecut=     5.00 Ry     beta= 0.70
     Davidson diagonalization with overlap

---- Real-time Memory Report at c_bands before calling an iterative solver
            55 MiB given to the printing process from OS
             0 MiB allocation reported by mallinfo(arena+hblkhd)
           522 MiB available memory on the node where the printing process lives
------------------
     ethr =  1.48E-09,  avg # of iterations =  4.0

     negative rho (up, down):  3.846E-01 0.000E+00

     total cpu time spent up to now is        7.6 secs

     total energy              =      -2.04212624 Ry
     estimated scf accuracy    <       0.00002958 Ry

     iteration # 97     ecut=     5.00 Ry     beta= 0.70
     Davidson diagonalization with overlap

---- Real-time Memory Report at c_bands before calling an iterative solver
            55 MiB given to the printing process from OS
             0 MiB allocation reported by mallinfo(arena+hblkhd)
           522 MiB available memory on the node where the printing process lives
------------------
     ethr =  1.48E-09,  avg # of iterations =  5.0

     negative rho (up, down):  3.847E-01 0.000E+00

     total cpu time spent up to now is        7.7 secs

     total energy              =      -2.04254924 Ry
     estimated scf accuracy    <       0.00000019 Ry

     iteration # 98     ecut=     5.00 Ry     beta= 0.70
     Davidson diagonalization with overlap

---- Real-time Memory Report at c_bands before calling an iterative solver
            55 MiB given to the printing process from OS
             0 MiB allocation reported by mallinfo(arena+hblkhd)
           522 MiB available memory on the node where the printing process lives
------------------
     ethr =  1.48E-09,  avg # of iterations =  3.0

     negative rho (up, down):  3.847E-01 0.000E+00

     total cpu time spent up to now is        7.7 secs

     total energy              =      -2.04254040 Ry
     estimated scf accuracy    <       0.00000008 Ry

     iteration # 99     ecut=     5.00 Ry     beta= 0.70
     Davidson diagonalization with overlap

---- Real-time Memory Report at c_bands before calling an iterative solver
            55 MiB given to the printing process from OS
             0 MiB allocation reported by mallinfo(arena+hblkhd)
           522 MiB available memory on the node where the printing process lives
------------------
     ethr =  1.48E-09,  avg # of iterations =  4.0

     negative rho (up, down):  3.848E-01 0.000E+00

     total cpu time spent up to now is        7.8 secs

     total energy              =      -2.04253703 Ry
     estimated scf accuracy    <       0.00000007 Ry

     iteration #100     ecut=     5.00 Ry     beta= 0.70
     Davidson diagonalization with overlap

---- Real-time Memory Report at c_bands before calling an iterative solver
            55 MiB given to the printing process from OS
             0 MiB allocation reported by mallinfo(arena+hblkhd)
           522 MiB available memory on the node where the printing process lives
------------------
     ethr =  1.48E-09,  avg # of iterations =  3.0

     negative rho (up, down):  3.848E-01 0.000E+00

     total cpu time spent up to now is        7.9 secs

     total energy              =      -2.04249744 Ry
     estimated scf accuracy    <       0.00000022 Ry

     End of self-consistent calculation

     convergence NOT achieved after 100 iterations: stopping

     Writing config to output data dir ./.save/
     Message from routine punch:
     wavefunctions written to file

     init_run     :      0.08s CPU      0.09s WALL (       1 calls)
     electrons    :      7.75s CPU      7.78s WALL (       1 calls)

     Called by init_run:
     wfcinit      :      0.00s CPU      0.01s WALL (       1 calls)
     wfcinit:atom :      0.00s CPU      0.00s WALL (       1 calls)
     wfcinit:wfcr :      0.00s CPU      0.00s WALL (       1 calls)
     potinit      :      0.05s CPU      0.05s WALL (       1 calls)
     hinit0       :      0.01s CPU      0.01s WALL (       1 calls)

     Called by electrons:
     c_bands      :      1.93s CPU      1.94s WALL (     100 calls)
     sum_band     :      0.78s CPU      0.79s WALL (     100 calls)
     v_of_rho     :      3.94s CPU      3.95s WALL (     101 calls)
     v_h          :      0.20s CPU      0.20s WALL (     101 calls)
     v_xc         :      3.74s CPU      3.75s WALL (     101 calls)
     newd         :      0.24s CPU      0.25s WALL (     101 calls)
     mix_rho      :      0.82s CPU      0.82s WALL (     100 calls)

     Called by c_bands:
     init_us_2    :      0.03s CPU      0.03s WALL (     201 calls)
     init_us_2:cp :      0.02s CPU      0.03s WALL (     201 calls)
     cegterg      :      1.91s CPU      1.92s WALL (     100 calls)

     Called by sum_band:
     sum_band:wei :      0.00s CPU      0.00s WALL (     100 calls)
     sum_band:loo :      0.22s CPU      0.23s WALL (     100 calls)
     sum_band:buf :      0.00s CPU      0.00s WALL (     100 calls)
     sum_band:ini :      0.01s CPU      0.01s WALL (     100 calls)
     sum_band:cal :      0.00s CPU      0.00s WALL (     100 calls)
     sum_band:bec :      0.00s CPU      0.00s WALL (     100 calls)
     addusdens    :      0.07s CPU      0.07s WALL (     100 calls)
     addusd:skk   :      0.02s CPU      0.02s WALL (     100 calls)
     addusd:dgemm :      0.01s CPU      0.02s WALL (     100 calls)
     addusd:qvan2 :      0.02s CPU      0.02s WALL (     100 calls)

     Called by *egterg:
     cdiaghg      :      0.01s CPU      0.01s WALL (     502 calls)
     cegterg:over :      0.03s CPU      0.03s WALL (     402 calls)
     cegterg:upda :      0.02s CPU      0.02s WALL (     402 calls)
     cegterg:last :      0.04s CPU      0.04s WALL (     335 calls)
     h_psi        :      1.77s CPU      1.78s WALL (     503 calls)
     s_psi        :      0.01s CPU      0.01s WALL (     503 calls)
     g_psi        :      0.01s CPU      0.01s WALL (     402 calls)

     Called by h_psi:
     h_psi:calbec :      0.01s CPU      0.01s WALL (     503 calls)
     vloc_psi     :      1.74s CPU      1.75s WALL (     503 calls)
     add_vuspsi   :      0.01s CPU      0.01s WALL (     503 calls)

     General routines
     calbec       :      0.01s CPU      0.01s WALL (     603 calls)
     fft          :      1.72s CPU      1.72s WALL (    1111 calls)
     ffts         :      0.15s CPU      0.16s WALL (     100 calls)
     fftw         :      1.80s CPU      1.82s WALL (    1836 calls)
     davcio       :      0.00s CPU      0.00s WALL (      19 calls)


     PWSCF        :      7.86s CPU      7.90s WALL


   This run was terminated on:   2:54: 5  28Feb2022            

=------------------------------------------------------------------------------=
   JOB DONE.
=------------------------------------------------------------------------------=
