
     Program PWSCF v.7.0 starts on 28Feb2022 at  3:24:32 

     This program is part of the open-source Quantum ESPRESSO suite
     for quantum simulation of materials; please cite
         "P. Giannozzi et al., J. Phys.:Condens. Matter 21 395502 (2009);
         "P. Giannozzi et al., J. Phys.:Condens. Matter 29 465901 (2017);
         "P. Giannozzi et al., J. Chem. Phys. 152 154105 (2020);
          URL http://www.quantum-espresso.org", 
     in publications or presentations arising from this work. More details at
     http://www.quantum-espresso.org/quote

     Serial version
     554 MiB available memory on the printing compute node when the environment starts

     Waiting for input...
     Reading input from standard input

     Current dimensions of program PWSCF are:
     Max number of different atomic species (ntypx) = 10
     Max number of k-points (npk) =  40000
     Max angular momentum in pseudopotentials (lmaxx) =  4

    ============================================================
    |  pseudopotential report for atomic species:  1           |
    |        pseudo potential version   7   3   2              |
    ------------------------------------------------------------
    |  hydrogen            PBE                  exchange-corr  |
    |  z =   1.    zv( 1) =   1.    exfact =   5.00000         |
    |  ifpcor =  0           atomic energy =  -0.91772 Ry      |
    |  index    orbital      occupation    energy              |
    |    1        100           1.00       -0.48               |
    |  rinner =  0.5000                                        |
    |    new generation scheme:                                |
    |    nbeta =  1     kkbeta =  271     rcloc =    0.6000    |
    |    ibeta    l     epsilon   rcut                         |
    |      1       0      -0.48   0.80                         |
    ============================================================

     IMPORTANT: XC functional enforced from input :
     Exchange-correlation= BLYP
                           (   1   3   1   3   0   0   0)
     Any further DFT definition will be discarded
     Please, verify this is what you really want


     G-vector sticks info
     --------------------
     sticks:   dense  smooth     PW     G-vecs:    dense   smooth      PW
     Sum        5721    5721   1565               326029   326029   45961

     Using Slab Decomposition



     bravais-lattice index     =            1
     lattice parameter (alat)  =      30.0000  a.u.
     unit-cell volume          =   27000.0000 (a.u.)^3
     number of atoms/cell      =            2
     number of atomic types    =            1
     number of electrons       =         2.00
     number of Kohn-Sham states=            2
     kinetic-energy cutoff     =      20.0000  Ry
     charge density cutoff     =      80.0000  Ry
     scf convergence threshold =      1.0E-08
     mixing beta               =       0.7000
     number of iterations used =            8  plain     mixing
     energy convergence thresh.=      1.0E-04
     force convergence thresh. =      1.0E-03
     Exchange-correlation= BLYP
                           (   1   3   1   3   0   0   0)
     nstep                     =           50


     celldm(1)=  30.000000  celldm(2)=   0.000000  celldm(3)=   0.000000
     celldm(4)=   0.000000  celldm(5)=   0.000000  celldm(6)=   0.000000

     crystal axes: (cart. coord. in units of alat)
               a(1) = (   1.000000   0.000000   0.000000 )  
               a(2) = (   0.000000   1.000000   0.000000 )  
               a(3) = (   0.000000   0.000000   1.000000 )  

     reciprocal axes: (cart. coord. in units 2 pi/alat)
               b(1) = (  1.000000  0.000000  0.000000 )  
               b(2) = (  0.000000  1.000000  0.000000 )  
               b(3) = (  0.000000  0.000000  1.000000 )  


     PseudoPot. # 1 for hy read from file:
     /root/q-e/pseudo/H_US.van
     MD5 check sum: a9a9bfe98ff56cf4de197d71fc46bb44
     Pseudo is Ultrasoft, Zval =  1.0
     Generated by Vanderbilt code, v. 7.3.2
     Using radial grid of  399 points,  1 beta functions with: 
                l(1) =   0
     Q(r) pseudized with  8 coefficients,  rinner =    0.500

     atomic species   valence    mass     pseudopotential
        H              1.00     1.00784     hy( 1.00)

      8 Sym. Ops. (no inversion) found


                                    s                        frac. trans.

      isym =  1     identity                                     

 cryst.   s( 1) = (     1          0          0      )
                  (     0          1          0      )
                  (     0          0          1      )

 cart.    s( 1) = (  1.0000000  0.0000000  0.0000000 )
                  (  0.0000000  1.0000000  0.0000000 )
                  (  0.0000000  0.0000000  1.0000000 )


      isym =  2     180 deg rotation - cart. axis [1,0,0]        

 cryst.   s( 2) = (     1          0          0      )
                  (     0         -1          0      )
                  (     0          0         -1      )

 cart.    s( 2) = (  1.0000000  0.0000000  0.0000000 )
                  (  0.0000000 -1.0000000  0.0000000 )
                  (  0.0000000  0.0000000 -1.0000000 )


      isym =  3      90 deg rotation - cart. axis [-1,0,0]       

 cryst.   s( 3) = (     1          0          0      )
                  (     0          0         -1      )
                  (     0          1          0      )

 cart.    s( 3) = (  1.0000000  0.0000000  0.0000000 )
                  (  0.0000000  0.0000000  1.0000000 )
                  (  0.0000000 -1.0000000  0.0000000 )


      isym =  4      90 deg rotation - cart. axis [1,0,0]        

 cryst.   s( 4) = (     1          0          0      )
                  (     0          0          1      )
                  (     0         -1          0      )

 cart.    s( 4) = (  1.0000000  0.0000000  0.0000000 )
                  (  0.0000000  0.0000000 -1.0000000 )
                  (  0.0000000  1.0000000  0.0000000 )


      isym =  5     inv. 180 deg rotation - cart. axis [0,0,1]   

 cryst.   s( 5) = (     1          0          0      )
                  (     0          1          0      )
                  (     0          0         -1      )

 cart.    s( 5) = (  1.0000000  0.0000000  0.0000000 )
                  (  0.0000000  1.0000000  0.0000000 )
                  (  0.0000000  0.0000000 -1.0000000 )


      isym =  6     inv. 180 deg rotation - cart. axis [0,1,0]   

 cryst.   s( 6) = (     1          0          0      )
                  (     0         -1          0      )
                  (     0          0          1      )

 cart.    s( 6) = (  1.0000000  0.0000000  0.0000000 )
                  (  0.0000000 -1.0000000  0.0000000 )
                  (  0.0000000  0.0000000  1.0000000 )


      isym =  7     inv. 180 deg rotation - cart. axis [0,1,1]   

 cryst.   s( 7) = (     1          0          0      )
                  (     0          0         -1      )
                  (     0         -1          0      )

 cart.    s( 7) = (  1.0000000  0.0000000  0.0000000 )
                  (  0.0000000  0.0000000 -1.0000000 )
                  (  0.0000000 -1.0000000  0.0000000 )


      isym =  8     inv. 180 deg rotation - cart. axis [0,1,-1]  

 cryst.   s( 8) = (     1          0          0      )
                  (     0          0          1      )
                  (     0          1          0      )

 cart.    s( 8) = (  1.0000000  0.0000000  0.0000000 )
                  (  0.0000000  0.0000000  1.0000000 )
                  (  0.0000000  1.0000000  0.0000000 )


     point group C_4v (4mm) 
     there are  5 classes
     the character table:

       E     2C4   C2    2s_v  2s_d 
A_1    1.00  1.00  1.00  1.00  1.00
A_2    1.00  1.00  1.00 -1.00 -1.00
B_1    1.00 -1.00  1.00  1.00 -1.00
B_2    1.00 -1.00  1.00 -1.00  1.00
E      2.00  0.00 -2.00  0.00  0.00

     the symmetry operations in each class and the name of the first element:

     E        1
          identity                                               
     2C4      3    4
           90 deg rotation - cart. axis [-1,0,0]                 
     C2       2
          180 deg rotation - cart. axis [1,0,0]                  
     2s_v     5    6
          inv. 180 deg rotation - cart. axis [0,0,1]             
     2s_d     7    8
          inv. 180 deg rotation - cart. axis [0,1,1]             

   Cartesian axes

     site n.     atom                  positions (alat units)
         1           H   tau(   1) = (   0.0000000   0.0000000   0.0000000  )
         2           H   tau(   2) = (   0.0529123   0.0000000   0.0000000  )

   Crystallographic axes

     site n.     atom                  positions (cryst. coord.)
         1           H   tau(   1) = (  0.0000000  0.0000000  0.0000000  )
         2           H   tau(   2) = (  0.0529123  0.0000000  0.0000000  )

     number of k points=     1
                       cart. coord. in units 2pi/alat
        k(    1) = (  -0.5000000  -0.5000000  -0.5000000), wk =   2.0000000

                       cryst. coord.
        k(    1) = (  -0.5000000  -0.5000000  -0.5000000), wk =   2.0000000

     Dense  grid:   326029 G-vectors     FFT dimensions: (  90,  90,  90)

     Dynamical RAM for                 wfc:       1.24 MB

     Dynamical RAM for     wfc (w. buffer):       1.24 MB

     Dynamical RAM for           str. fact:       4.97 MB

     Dynamical RAM for           local pot:       0.00 MB

     Dynamical RAM for          nlocal pot:       1.24 MB

     Dynamical RAM for                qrad:       0.01 MB

     Dynamical RAM for          rho,v,vnew:      31.61 MB

     Dynamical RAM for               rhoin:      10.54 MB

     Dynamical RAM for            rho*nmix:      79.60 MB

     Dynamical RAM for           G-vectors:      21.14 MB

     Dynamical RAM for          h,s,v(r/c):       0.00 MB

     Dynamical RAM for          <psi|beta>:       0.00 MB

     Dynamical RAM for                 psi:       2.49 MB

     Dynamical RAM for                hpsi:       2.49 MB

     Dynamical RAM for                spsi:       2.49 MB

     Dynamical RAM for      wfcinit/wfcrot:       2.49 MB

     Dynamical RAM for           addusdens:      29.85 MB

     Dynamical RAM for          addusforce:      42.29 MB

     Estimated static dynamical RAM per process >     108.52 MB

     Estimated max dynamical RAM per process >     230.40 MB

     Initial potential from superposition of free atoms

     starting charge       2.0000, renormalised to       2.0000

     negative rho (up, down):  5.703E-02 0.000E+00
     Starting wfcs are    2 randomized atomic wfcs

     total cpu time spent up to now is        0.6 secs

     Self-consistent Calculation

     iteration #  1     ecut=    20.00 Ry     beta= 0.70
     Davidson diagonalization with overlap

---- Real-time Memory Report at c_bands before calling an iterative solver
           194 MiB given to the printing process from OS
             0 MiB allocation reported by mallinfo(arena+hblkhd)
           426 MiB available memory on the node where the printing process lives
------------------
     ethr =  1.00E-02,  avg # of iterations =  3.0

     negative rho (up, down):  8.075E-02 0.000E+00

     total cpu time spent up to now is        1.3 secs

     total energy              =      -2.30352620 Ry
     estimated scf accuracy    <       0.09196930 Ry

     iteration #  2     ecut=    20.00 Ry     beta= 0.70
     Davidson diagonalization with overlap

---- Real-time Memory Report at c_bands before calling an iterative solver
           241 MiB given to the printing process from OS
             0 MiB allocation reported by mallinfo(arena+hblkhd)
           325 MiB available memory on the node where the printing process lives
------------------
     ethr =  4.60E-03,  avg # of iterations =  2.0

     negative rho (up, down):  8.586E-02 0.000E+00

     total cpu time spent up to now is        1.9 secs

     total energy              =      -2.30633476 Ry
     estimated scf accuracy    <       0.00114428 Ry

     iteration #  3     ecut=    20.00 Ry     beta= 0.70
     Davidson diagonalization with overlap

---- Real-time Memory Report at c_bands before calling an iterative solver
           251 MiB given to the printing process from OS
             0 MiB allocation reported by mallinfo(arena+hblkhd)
           314 MiB available memory on the node where the printing process lives
------------------
     ethr =  5.72E-05,  avg # of iterations = 11.0

     negative rho (up, down):  8.563E-02 0.000E+00

     total cpu time spent up to now is        2.8 secs

     total energy              =      -2.30677312 Ry
     estimated scf accuracy    <       0.00001275 Ry

     iteration #  4     ecut=    20.00 Ry     beta= 0.70
     Davidson diagonalization with overlap

---- Real-time Memory Report at c_bands before calling an iterative solver
           261 MiB given to the printing process from OS
             0 MiB allocation reported by mallinfo(arena+hblkhd)
           304 MiB available memory on the node where the printing process lives
------------------
     ethr =  6.38E-07,  avg # of iterations =  5.0

     negative rho (up, down):  8.564E-02 0.000E+00

     total cpu time spent up to now is        3.5 secs

     total energy              =      -2.30674397 Ry
     estimated scf accuracy    <       0.00000035 Ry

     iteration #  5     ecut=    20.00 Ry     beta= 0.70
     Davidson diagonalization with overlap

---- Real-time Memory Report at c_bands before calling an iterative solver
           271 MiB given to the printing process from OS
             0 MiB allocation reported by mallinfo(arena+hblkhd)
           294 MiB available memory on the node where the printing process lives
------------------
     ethr =  1.75E-08,  avg # of iterations =  2.0

     negative rho (up, down):  8.565E-02 0.000E+00

     total cpu time spent up to now is        4.2 secs

     total energy              =      -2.30673869 Ry
     estimated scf accuracy    <       0.00000002 Ry

     iteration #  6     ecut=    20.00 Ry     beta= 0.70
     Davidson diagonalization with overlap

---- Real-time Memory Report at c_bands before calling an iterative solver
           281 MiB given to the printing process from OS
             0 MiB allocation reported by mallinfo(arena+hblkhd)
           284 MiB available memory on the node where the printing process lives
------------------
     ethr =  9.08E-10,  avg # of iterations =  3.0

     negative rho (up, down):  8.565E-02 0.000E+00

     total cpu time spent up to now is        4.7 secs

     End of self-consistent calculation

          k =-0.5000-0.5000-0.5000 ( 40800 PWs)   bands (ev):

   -10.0856  -1.3941

     occupation numbers 
     1.0000   0.0000

     highest occupied, lowest unoccupied level (ev):   -10.0856   -1.3941

!    total energy              =      -2.30674276 Ry
     estimated scf accuracy    <          2.9E-10 Ry

     The total energy is the sum of the following terms:
     one-electron contribution =      -3.99005395 Ry
     hartree contribution      =       2.13598490 Ry
     xc contribution           =      -1.33470563 Ry
     ewald contribution        =       0.88203193 Ry

     convergence has been achieved in   6 iterations

     Forces acting on atoms (cartesian axes, Ry/au):

     atom    1 type  1   force =     0.11530518    0.00000000    0.00000000
     atom    2 type  1   force =    -0.11530518    0.00000000    0.00000000
     The non-local contrib.  to forces
     atom    1 type  1   force =     0.09970486    0.00000000    0.00000000
     atom    2 type  1   force =    -0.09948966    0.00000000    0.00000000
     The ionic contribution  to forces
     atom    1 type  1   force =    -0.79323501   -0.00000000   -0.00000000
     atom    2 type  1   force =     0.79323501   -0.00000000   -0.00000000
     The local contribution  to forces
     atom    1 type  1   force =     0.80884318    0.00000000    0.00000000
     atom    2 type  1   force =    -0.80887050    0.00000000    0.00000000
     The core correction contribution to forces
     atom    1 type  1   force =     0.00000000    0.00000000    0.00000000
     atom    2 type  1   force =     0.00000000    0.00000000    0.00000000
     The Hubbard contrib.    to forces
     atom    1 type  1   force =     0.00000000    0.00000000    0.00000000
     atom    2 type  1   force =     0.00000000    0.00000000    0.00000000
     The SCF correction term to forces
     atom    1 type  1   force =     0.00030315    0.00000000    0.00000000
     atom    2 type  1   force =     0.00013097    0.00000000    0.00000000

     Total force =     0.163066     Total SCF correction =     0.000330

     BFGS Geometry Optimization
     Energy error            =      0.0E+00 Ry
     Gradient error          =      1.2E-01 Ry/Bohr

     number of scf cycles    =   1
     number of bfgs steps    =   0

     energy             new  =      -2.3067427621 Ry

     new trust radius        =       0.1153051822 bohr
     new conv_thr            =       0.0000000100 Ry


ATOMIC_POSITIONS (angstrom)
H             0.0610168747        0.0000000000        0.0000000000
H             0.7789831253        0.0000000000        0.0000000000



     Writing config-only to output data dir ./.save/
     NEW-OLD atomic charge density approx. for the potential

     negative rho (up, down):  7.979E-02 0.000E+00

     total cpu time spent up to now is        5.4 secs

     Self-consistent Calculation

     iteration #  1     ecut=    20.00 Ry     beta= 0.70
     Davidson diagonalization with overlap

---- Real-time Memory Report at c_bands before calling an iterative solver
           286 MiB given to the printing process from OS
             0 MiB allocation reported by mallinfo(arena+hblkhd)
           416 MiB available memory on the node where the printing process lives
------------------
     ethr =  1.00E-06,  avg # of iterations =  7.0

     negative rho (up, down):  9.002E-02 0.000E+00

     total cpu time spent up to now is        6.2 secs

     total energy              =      -2.31201504 Ry
     estimated scf accuracy    <       0.00375834 Ry

     iteration #  2     ecut=    20.00 Ry     beta= 0.70
     Davidson diagonalization with overlap

---- Real-time Memory Report at c_bands before calling an iterative solver
           286 MiB given to the printing process from OS
             0 MiB allocation reported by mallinfo(arena+hblkhd)
           319 MiB available memory on the node where the printing process lives
------------------
     ethr =  1.88E-04,  avg # of iterations =  1.0

     negative rho (up, down):  9.255E-02 0.000E+00

     total cpu time spent up to now is        6.8 secs

     total energy              =      -2.31067692 Ry
     estimated scf accuracy    <       0.00004313 Ry

     iteration #  3     ecut=    20.00 Ry     beta= 0.70
     Davidson diagonalization with overlap

---- Real-time Memory Report at c_bands before calling an iterative solver
           286 MiB given to the printing process from OS
             0 MiB allocation reported by mallinfo(arena+hblkhd)
           309 MiB available memory on the node where the printing process lives
------------------
     ethr =  2.16E-06,  avg # of iterations =  3.0

     negative rho (up, down):  9.309E-02 0.000E+00

     total cpu time spent up to now is        7.5 secs

     total energy              =      -2.31026271 Ry
     estimated scf accuracy    <       0.00000148 Ry

     iteration #  4     ecut=    20.00 Ry     beta= 0.70
     Davidson diagonalization with overlap

---- Real-time Memory Report at c_bands before calling an iterative solver
           286 MiB given to the printing process from OS
             0 MiB allocation reported by mallinfo(arena+hblkhd)
           299 MiB available memory on the node where the printing process lives
------------------
     ethr =  7.41E-08,  avg # of iterations =  2.0

     negative rho (up, down):  9.305E-02 0.000E+00

     total cpu time spent up to now is        8.1 secs

     total energy              =      -2.31028778 Ry
     estimated scf accuracy    <       0.00000002 Ry

     iteration #  5     ecut=    20.00 Ry     beta= 0.70
     Davidson diagonalization with overlap

---- Real-time Memory Report at c_bands before calling an iterative solver
           286 MiB given to the printing process from OS
             0 MiB allocation reported by mallinfo(arena+hblkhd)
           289 MiB available memory on the node where the printing process lives
------------------
     ethr =  1.14E-09,  avg # of iterations =  4.0

     negative rho (up, down):  9.305E-02 0.000E+00

     total cpu time spent up to now is        8.8 secs

     total energy              =      -2.31028558 Ry
     estimated scf accuracy    <       0.00000001 Ry

     iteration #  6     ecut=    20.00 Ry     beta= 0.70
     Davidson diagonalization with overlap

---- Real-time Memory Report at c_bands before calling an iterative solver
           287 MiB given to the printing process from OS
             0 MiB allocation reported by mallinfo(arena+hblkhd)
           279 MiB available memory on the node where the printing process lives
------------------
     ethr =  7.19E-10,  avg # of iterations =  3.0

     negative rho (up, down):  9.305E-02 0.000E+00

     total cpu time spent up to now is        9.4 secs

     End of self-consistent calculation

          k =-0.5000-0.5000-0.5000 ( 40800 PWs)   bands (ev):

   -10.6680  -1.3698

     occupation numbers 
     1.0000   0.0000

     highest occupied, lowest unoccupied level (ev):   -10.6680   -1.3698

!    total energy              =      -2.31027523 Ry
     estimated scf accuracy    <          5.3E-10 Ry

     The total energy is the sum of the following terms:
     one-electron contribution =      -4.29276684 Ry
     hartree contribution      =       2.29452162 Ry
     xc contribution           =      -1.40811062 Ry
     ewald contribution        =       1.09608062 Ry

     convergence has been achieved in   6 iterations

     Forces acting on atoms (cartesian axes, Ry/au):

     atom    1 type  1   force =    -0.05222986    0.00000000    0.00000000
     atom    2 type  1   force =     0.05222986    0.00000000    0.00000000
     The non-local contrib.  to forces
     atom    1 type  1   force =     0.10085994    0.00000000    0.00000000
     atom    2 type  1   force =    -0.10124910    0.00000000    0.00000000
     The ionic contribution  to forces
     atom    1 type  1   force =    -1.08606264   -0.00000000   -0.00000000
     atom    2 type  1   force =     1.08606264   -0.00000000   -0.00000000
     The local contribution  to forces
     atom    1 type  1   force =     0.93297456    0.00000000    0.00000000
     atom    2 type  1   force =    -0.93291977    0.00000000    0.00000000
     The core correction contribution to forces
     atom    1 type  1   force =     0.00000000    0.00000000    0.00000000
     atom    2 type  1   force =     0.00000000    0.00000000    0.00000000
     The Hubbard contrib.    to forces
     atom    1 type  1   force =     0.00000000    0.00000000    0.00000000
     atom    2 type  1   force =     0.00000000    0.00000000    0.00000000
     The SCF correction term to forces
     atom    1 type  1   force =    -0.00023964    0.00000000    0.00000000
     atom    2 type  1   force =     0.00009819    0.00000000    0.00000000

     Total force =     0.073864     Total SCF correction =     0.000259
     Energy error            =      3.5E-03 Ry
     Gradient error          =      5.2E-02 Ry/Bohr

     number of scf cycles    =   2
     number of bfgs steps    =   1

     energy             old  =      -2.3067427621 Ry
     energy             new  =      -2.3102752264 Ry

     CASE: energy            _new < energy            _old

     new trust radius        =       0.0359469500 bohr
     new conv_thr            =       0.0000000035 Ry


ATOMIC_POSITIONS (angstrom)
H             0.0419945679        0.0000000000        0.0000000000
H             0.7980054321        0.0000000000        0.0000000000



     Writing config-only to output data dir ./.save/
     NEW-OLD atomic charge density approx. for the potential

     negative rho (up, down):  9.417E-02 0.000E+00

     total cpu time spent up to now is       10.0 secs

     Self-consistent Calculation

     iteration #  1     ecut=    20.00 Ry     beta= 0.70
     Davidson diagonalization with overlap

---- Real-time Memory Report at c_bands before calling an iterative solver
           287 MiB given to the printing process from OS
             0 MiB allocation reported by mallinfo(arena+hblkhd)
           416 MiB available memory on the node where the printing process lives
------------------
     ethr =  1.00E-06,  avg # of iterations =  4.0

     negative rho (up, down):  9.177E-02 0.000E+00

     total cpu time spent up to now is       10.7 secs

     total energy              =      -2.31265334 Ry
     estimated scf accuracy    <       0.00040876 Ry

     iteration #  2     ecut=    20.00 Ry     beta= 0.70
     Davidson diagonalization with overlap

---- Real-time Memory Report at c_bands before calling an iterative solver
           287 MiB given to the printing process from OS
             0 MiB allocation reported by mallinfo(arena+hblkhd)
           319 MiB available memory on the node where the printing process lives
------------------
     ethr =  2.04E-05,  avg # of iterations =  1.0

     negative rho (up, down):  9.139E-02 0.000E+00

     total cpu time spent up to now is       11.3 secs

     total energy              =      -2.31297797 Ry
     estimated scf accuracy    <       0.00000517 Ry

     iteration #  3     ecut=    20.00 Ry     beta= 0.70
     Davidson diagonalization with overlap

---- Real-time Memory Report at c_bands before calling an iterative solver
           287 MiB given to the printing process from OS
             0 MiB allocation reported by mallinfo(arena+hblkhd)
           309 MiB available memory on the node where the printing process lives
------------------
     ethr =  2.59E-07,  avg # of iterations =  3.0

     negative rho (up, down):  9.140E-02 0.000E+00

     total cpu time spent up to now is       12.0 secs

     total energy              =      -2.31297615 Ry
     estimated scf accuracy    <       0.00000027 Ry

     iteration #  4     ecut=    20.00 Ry     beta= 0.70
     Davidson diagonalization with overlap

---- Real-time Memory Report at c_bands before calling an iterative solver
           287 MiB given to the printing process from OS
             0 MiB allocation reported by mallinfo(arena+hblkhd)
           299 MiB available memory on the node where the printing process lives
------------------
     ethr =  1.33E-08,  avg # of iterations =  2.0

     negative rho (up, down):  9.139E-02 0.000E+00

     total cpu time spent up to now is       12.7 secs

     total energy              =      -2.31298057 Ry
     estimated scf accuracy    <       0.00000002 Ry

     iteration #  5     ecut=    20.00 Ry     beta= 0.70
     Davidson diagonalization with overlap

---- Real-time Memory Report at c_bands before calling an iterative solver
           287 MiB given to the printing process from OS
             0 MiB allocation reported by mallinfo(arena+hblkhd)
           289 MiB available memory on the node where the printing process lives
------------------
     ethr =  1.23E-09,  avg # of iterations =  3.0

     negative rho (up, down):  9.138E-02 0.000E+00

     total cpu time spent up to now is       13.3 secs

     total energy              =      -2.31298747 Ry
     estimated scf accuracy    <       0.00000002 Ry

     iteration #  6     ecut=    20.00 Ry     beta= 0.70
     Davidson diagonalization with overlap

---- Real-time Memory Report at c_bands before calling an iterative solver
           287 MiB given to the printing process from OS
             0 MiB allocation reported by mallinfo(arena+hblkhd)
           279 MiB available memory on the node where the printing process lives
------------------
     ethr =  8.45E-10,  avg # of iterations =  2.0

     negative rho (up, down):  9.137E-02 0.000E+00

     total cpu time spent up to now is       13.9 secs

     total energy              =      -2.31300286 Ry
     estimated scf accuracy    <          5.9E-09 Ry

     iteration #  7     ecut=    20.00 Ry     beta= 0.70
     Davidson diagonalization with overlap

---- Real-time Memory Report at c_bands before calling an iterative solver
           297 MiB given to the printing process from OS
             0 MiB allocation reported by mallinfo(arena+hblkhd)
           269 MiB available memory on the node where the printing process lives
------------------
     ethr =  2.97E-10,  avg # of iterations =  4.0

     negative rho (up, down):  9.138E-02 0.000E+00

     total cpu time spent up to now is       14.6 secs

     total energy              =      -2.31298594 Ry
     estimated scf accuracy    <       0.00000002 Ry

     iteration #  8     ecut=    20.00 Ry     beta= 0.70
     Davidson diagonalization with overlap

---- Real-time Memory Report at c_bands before calling an iterative solver
           307 MiB given to the printing process from OS
             0 MiB allocation reported by mallinfo(arena+hblkhd)
           259 MiB available memory on the node where the printing process lives
------------------
     ethr =  2.97E-10,  avg # of iterations =  4.0

     negative rho (up, down):  9.138E-02 0.000E+00

     total cpu time spent up to now is       15.3 secs

     total energy              =      -2.31299480 Ry
     estimated scf accuracy    <          6.2E-09 Ry

     iteration #  9     ecut=    20.00 Ry     beta= 0.70
     Davidson diagonalization with overlap

---- Real-time Memory Report at c_bands before calling an iterative solver
           317 MiB given to the printing process from OS
             0 MiB allocation reported by mallinfo(arena+hblkhd)
           249 MiB available memory on the node where the printing process lives
------------------
     ethr =  2.97E-10,  avg # of iterations =  4.0

     negative rho (up, down):  9.138E-02 0.000E+00

     total cpu time spent up to now is       15.9 secs

     End of self-consistent calculation

          k =-0.5000-0.5000-0.5000 ( 40800 PWs)   bands (ev):

   -10.4754  -1.3913

     occupation numbers 
     1.0000   0.0000

     highest occupied, lowest unoccupied level (ev):   -10.4754   -1.3913

!    total energy              =      -2.31299887 Ry
     estimated scf accuracy    <          1.5E-09 Ry

     The total energy is the sum of the following terms:
     one-electron contribution =      -4.19396899 Ry
     hartree contribution      =       2.24323214 Ry
     xc contribution           =      -1.38419298 Ry
     ewald contribution        =       1.02193096 Ry

     convergence has been achieved in   9 iterations

     Forces acting on atoms (cartesian axes, Ry/au):

     atom    1 type  1   force =     0.00861450    0.00000000    0.00000000
     atom    2 type  1   force =    -0.00861450    0.00000000    0.00000000
     The non-local contrib.  to forces
     atom    1 type  1   force =     0.09418444    0.00000000    0.00000000
     atom    2 type  1   force =    -0.09473324    0.00000000    0.00000000
     The ionic contribution  to forces
     atom    1 type  1   force =    -0.97944117   -0.00000000   -0.00000000
     atom    2 type  1   force =     0.97944117    0.00000000   -0.00000000
     The local contribution  to forces
     atom    1 type  1   force =     0.89358037    0.00000000    0.00000000
     atom    2 type  1   force =    -0.89349625    0.00000000    0.00000000
     The core correction contribution to forces
     atom    1 type  1   force =     0.00000000    0.00000000    0.00000000
     atom    2 type  1   force =     0.00000000    0.00000000    0.00000000
     The Hubbard contrib.    to forces
     atom    1 type  1   force =     0.00000000    0.00000000    0.00000000
     atom    2 type  1   force =     0.00000000    0.00000000    0.00000000
     The SCF correction term to forces
     atom    1 type  1   force =     0.00031276    0.00000000    0.00000000
     atom    2 type  1   force =     0.00019572    0.00000000    0.00000000

     Total force =     0.012183     Total SCF correction =     0.000369
     Energy error            =      2.7E-03 Ry
     Gradient error          =      8.6E-03 Ry/Bohr

     number of scf cycles    =   3
     number of bfgs steps    =   2

     energy             old  =      -2.3102752264 Ry
     energy             new  =      -2.3129988664 Ry

     CASE: energy            _new < energy            _old

     new trust radius        =       0.0050894631 bohr
     new conv_thr            =       0.0000000009 Ry


ATOMIC_POSITIONS (angstrom)
H             0.0446877958        0.0000000000        0.0000000000
H             0.7953122042        0.0000000000        0.0000000000



     Writing config-only to output data dir ./.save/
     NEW-OLD atomic charge density approx. for the potential

     negative rho (up, down):  9.116E-02 0.000E+00

     total cpu time spent up to now is       16.6 secs

     Self-consistent Calculation

     iteration #  1     ecut=    20.00 Ry     beta= 0.70
     Davidson diagonalization with overlap

---- Real-time Memory Report at c_bands before calling an iterative solver
           317 MiB given to the printing process from OS
             0 MiB allocation reported by mallinfo(arena+hblkhd)
           416 MiB available memory on the node where the printing process lives
------------------
     ethr =  1.00E-06,  avg # of iterations =  2.0

     negative rho (up, down):  9.153E-02 0.000E+00

     total cpu time spent up to now is       17.2 secs

     total energy              =      -2.31292682 Ry
     estimated scf accuracy    <       0.00000700 Ry

     iteration #  2     ecut=    20.00 Ry     beta= 0.70
     Davidson diagonalization with overlap

---- Real-time Memory Report at c_bands before calling an iterative solver
           317 MiB given to the printing process from OS
             0 MiB allocation reported by mallinfo(arena+hblkhd)
           319 MiB available memory on the node where the printing process lives
------------------
     ethr =  3.50E-07,  avg # of iterations =  2.0

     negative rho (up, down):  9.159E-02 0.000E+00

     total cpu time spent up to now is       17.8 secs

     total energy              =      -2.31291275 Ry
     estimated scf accuracy    <       0.00000013 Ry

     iteration #  3     ecut=    20.00 Ry     beta= 0.70
     Davidson diagonalization with overlap

---- Real-time Memory Report at c_bands before calling an iterative solver
           317 MiB given to the printing process from OS
             0 MiB allocation reported by mallinfo(arena+hblkhd)
           309 MiB available memory on the node where the printing process lives
------------------
     ethr =  6.27E-09,  avg # of iterations =  2.0

     negative rho (up, down):  9.162E-02 0.000E+00

     total cpu time spent up to now is       18.4 secs

     total energy              =      -2.31288736 Ry
     estimated scf accuracy    <          7.1E-09 Ry

     iteration #  4     ecut=    20.00 Ry     beta= 0.70
     Davidson diagonalization with overlap

---- Real-time Memory Report at c_bands before calling an iterative solver
           317 MiB given to the printing process from OS
             0 MiB allocation reported by mallinfo(arena+hblkhd)
           299 MiB available memory on the node where the printing process lives
------------------
     ethr =  3.54E-10,  avg # of iterations =  4.0

     negative rho (up, down):  9.161E-02 0.000E+00

     total cpu time spent up to now is       19.1 secs

     total energy              =      -2.31288792 Ry
     estimated scf accuracy    <          5.5E-09 Ry

     iteration #  5     ecut=    20.00 Ry     beta= 0.70
     Davidson diagonalization with overlap

---- Real-time Memory Report at c_bands before calling an iterative solver
           317 MiB given to the printing process from OS
             0 MiB allocation reported by mallinfo(arena+hblkhd)
           289 MiB available memory on the node where the printing process lives
------------------
     ethr =  2.77E-10,  avg # of iterations =  4.0

     negative rho (up, down):  9.161E-02 0.000E+00

     total cpu time spent up to now is       19.8 secs

     total energy              =      -2.31290082 Ry
     estimated scf accuracy    <          9.5E-09 Ry

     iteration #  6     ecut=    20.00 Ry     beta= 0.70
     Davidson diagonalization with overlap

---- Real-time Memory Report at c_bands before calling an iterative solver
           317 MiB given to the printing process from OS
             0 MiB allocation reported by mallinfo(arena+hblkhd)
           279 MiB available memory on the node where the printing process lives
------------------
     ethr =  2.77E-10,  avg # of iterations =  4.0

     negative rho (up, down):  9.161E-02 0.000E+00

     total cpu time spent up to now is       20.5 secs

     total energy              =      -2.31290139 Ry
     estimated scf accuracy    <          1.8E-09 Ry

     iteration #  7     ecut=    20.00 Ry     beta= 0.70
     Davidson diagonalization with overlap

---- Real-time Memory Report at c_bands before calling an iterative solver
           317 MiB given to the printing process from OS
             0 MiB allocation reported by mallinfo(arena+hblkhd)
           269 MiB available memory on the node where the printing process lives
------------------
     ethr =  8.97E-11,  avg # of iterations =  1.0

     negative rho (up, down):  9.161E-02 0.000E+00

     total cpu time spent up to now is       21.1 secs

     total energy              =      -2.31290135 Ry
     estimated scf accuracy    <          1.9E-09 Ry

     iteration #  8     ecut=    20.00 Ry     beta= 0.70
     Davidson diagonalization with overlap

---- Real-time Memory Report at c_bands before calling an iterative solver
           317 MiB given to the printing process from OS
             0 MiB allocation reported by mallinfo(arena+hblkhd)
           259 MiB available memory on the node where the printing process lives
------------------
     ethr =  8.97E-11,  avg # of iterations =  2.0

     negative rho (up, down):  9.161E-02 0.000E+00

     total cpu time spent up to now is       21.7 secs

     total energy              =      -2.31289600 Ry
     estimated scf accuracy    <          1.8E-09 Ry

     iteration #  9     ecut=    20.00 Ry     beta= 0.70
     Davidson diagonalization with overlap

---- Real-time Memory Report at c_bands before calling an iterative solver
           317 MiB given to the printing process from OS
             0 MiB allocation reported by mallinfo(arena+hblkhd)
           249 MiB available memory on the node where the printing process lives
------------------
     ethr =  8.97E-11,  avg # of iterations =  4.0

     negative rho (up, down):  9.161E-02 0.000E+00

     total cpu time spent up to now is       22.4 secs

     total energy              =      -2.31289931 Ry
     estimated scf accuracy    <          9.8E-09 Ry

     iteration # 10     ecut=    20.00 Ry     beta= 0.70
     Davidson diagonalization with overlap

---- Real-time Memory Report at c_bands before calling an iterative solver
           327 MiB given to the printing process from OS
             0 MiB allocation reported by mallinfo(arena+hblkhd)
           239 MiB available memory on the node where the printing process lives
------------------
     ethr =  8.97E-11,  avg # of iterations =  3.0

     negative rho (up, down):  9.161E-02 0.000E+00

     total cpu time spent up to now is       23.1 secs

     total energy              =      -2.31289263 Ry
     estimated scf accuracy    <          5.9E-09 Ry

     iteration # 11     ecut=    20.00 Ry     beta= 0.70
     Davidson diagonalization with overlap

---- Real-time Memory Report at c_bands before calling an iterative solver
           327 MiB given to the printing process from OS
             0 MiB allocation reported by mallinfo(arena+hblkhd)
           239 MiB available memory on the node where the printing process lives
------------------
     ethr =  8.97E-11,  avg # of iterations =  3.0

     negative rho (up, down):  9.161E-02 0.000E+00

     total cpu time spent up to now is       23.7 secs

     total energy              =      -2.31290707 Ry
     estimated scf accuracy    <       0.00000001 Ry

     iteration # 12     ecut=    20.00 Ry     beta= 0.70
     Davidson diagonalization with overlap

---- Real-time Memory Report at c_bands before calling an iterative solver
           327 MiB given to the printing process from OS
             0 MiB allocation reported by mallinfo(arena+hblkhd)
           239 MiB available memory on the node where the printing process lives
------------------
     ethr =  8.97E-11,  avg # of iterations =  4.0

     negative rho (up, down):  9.161E-02 0.000E+00

     total cpu time spent up to now is       24.4 secs

     total energy              =      -2.31289532 Ry
     estimated scf accuracy    <          6.5E-09 Ry

     iteration # 13     ecut=    20.00 Ry     beta= 0.70
     Davidson diagonalization with overlap

---- Real-time Memory Report at c_bands before calling an iterative solver
           327 MiB given to the printing process from OS
             0 MiB allocation reported by mallinfo(arena+hblkhd)
           239 MiB available memory on the node where the printing process lives
------------------
     ethr =  8.97E-11,  avg # of iterations =  4.0

     negative rho (up, down):  9.161E-02 0.000E+00

     total cpu time spent up to now is       25.1 secs

     total energy              =      -2.31289671 Ry
     estimated scf accuracy    <       0.00000001 Ry

     iteration # 14     ecut=    20.00 Ry     beta= 0.70
     Davidson diagonalization with overlap

---- Real-time Memory Report at c_bands before calling an iterative solver
           327 MiB given to the printing process from OS
             0 MiB allocation reported by mallinfo(arena+hblkhd)
           239 MiB available memory on the node where the printing process lives
------------------
     ethr =  8.97E-11,  avg # of iterations =  2.0

     negative rho (up, down):  9.161E-02 0.000E+00

     total cpu time spent up to now is       25.8 secs

     total energy              =      -2.31289671 Ry
     estimated scf accuracy    <       0.00000001 Ry

     iteration # 15     ecut=    20.00 Ry     beta= 0.70
     Davidson diagonalization with overlap

---- Real-time Memory Report at c_bands before calling an iterative solver
           327 MiB given to the printing process from OS
             0 MiB allocation reported by mallinfo(arena+hblkhd)
           239 MiB available memory on the node where the printing process lives
------------------
     ethr =  8.97E-11,  avg # of iterations =  1.0

     negative rho (up, down):  9.161E-02 0.000E+00

     total cpu time spent up to now is       26.4 secs

     total energy              =      -2.31289304 Ry
     estimated scf accuracy    <       0.00000001 Ry

     iteration # 16     ecut=    20.00 Ry     beta= 0.70
     Davidson diagonalization with overlap

---- Real-time Memory Report at c_bands before calling an iterative solver
           327 MiB given to the printing process from OS
             0 MiB allocation reported by mallinfo(arena+hblkhd)
           239 MiB available memory on the node where the printing process lives
------------------
     ethr =  8.97E-11,  avg # of iterations =  3.0

     negative rho (up, down):  9.161E-02 0.000E+00

     total cpu time spent up to now is       27.1 secs

     total energy              =      -2.31289305 Ry
     estimated scf accuracy    <       0.00000001 Ry

     iteration # 17     ecut=    20.00 Ry     beta= 0.70
     Davidson diagonalization with overlap

---- Real-time Memory Report at c_bands before calling an iterative solver
           327 MiB given to the printing process from OS
             0 MiB allocation reported by mallinfo(arena+hblkhd)
           239 MiB available memory on the node where the printing process lives
------------------
     ethr =  8.97E-11,  avg # of iterations =  1.0

     negative rho (up, down):  9.161E-02 0.000E+00

     total cpu time spent up to now is       27.7 secs

     total energy              =      -2.31291164 Ry
     estimated scf accuracy    <       0.00000001 Ry

     iteration # 18     ecut=    20.00 Ry     beta= 0.70
     Davidson diagonalization with overlap

---- Real-time Memory Report at c_bands before calling an iterative solver
           327 MiB given to the printing process from OS
             0 MiB allocation reported by mallinfo(arena+hblkhd)
           239 MiB available memory on the node where the printing process lives
------------------
     ethr =  8.97E-11,  avg # of iterations =  4.0

     negative rho (up, down):  9.161E-02 0.000E+00

     total cpu time spent up to now is       28.3 secs

     End of self-consistent calculation

          k =-0.5000-0.5000-0.5000 ( 40800 PWs)   bands (ev):

   -10.5022  -1.3867

     occupation numbers 
     1.0000   0.0000

     highest occupied, lowest unoccupied level (ev):   -10.5022   -1.3867

!    total energy              =      -2.31290430 Ry
     estimated scf accuracy    <          8.2E-10 Ry

     The total energy is the sum of the following terms:
     one-electron contribution =      -4.20762422 Ry
     hartree contribution      =       2.25022148 Ry
     xc contribution           =      -1.38747377 Ry
     ewald contribution        =       1.03197221 Ry

     convergence has been achieved in  18 iterations

     Forces acting on atoms (cartesian axes, Ry/au):

     atom    1 type  1   force =     0.00060176    0.00000000    0.00000000
     atom    2 type  1   force =    -0.00060176    0.00000000    0.00000000
     The non-local contrib.  to forces
     atom    1 type  1   force =     0.09472317    0.00000000    0.00000000
     atom    2 type  1   force =    -0.09539290    0.00000000    0.00000000
     The ionic contribution  to forces
     atom    1 type  1   force =    -0.99355813   -0.00000000   -0.00000000
     atom    2 type  1   force =     0.99355813    0.00000000   -0.00000000
     The local contribution  to forces
     atom    1 type  1   force =     0.89907202    0.00000000    0.00000000
     atom    2 type  1   force =    -0.89901010    0.00000000    0.00000000
     The core correction contribution to forces
     atom    1 type  1   force =     0.00000000    0.00000000    0.00000000
     atom    2 type  1   force =     0.00000000    0.00000000    0.00000000
     The Hubbard contrib.    to forces
     atom    1 type  1   force =     0.00000000    0.00000000    0.00000000
     atom    2 type  1   force =     0.00000000    0.00000000    0.00000000
     The SCF correction term to forces
     atom    1 type  1   force =    -0.00009221    0.00000000    0.00000000
     atom    2 type  1   force =    -0.00021379    0.00000000    0.00000000

     Total force =     0.000851     Total SCF correction =     0.000233
     SCF correction compared to forces is large: reduce conv_thr to get better values
     Energy error            =      9.5E-05 Ry
     Gradient error          =      6.0E-04 Ry/Bohr

     bfgs converged in   4 scf cycles and   3 bfgs steps
     (criteria: energy <  1.0E-04 Ry, force <  1.0E-03 Ry/Bohr)

     End of BFGS Geometry Optimization

     Final energy             =      -2.3129042996 Ry

     File ./.bfgs deleted, as requested
Begin final coordinates

ATOMIC_POSITIONS (angstrom)
H             0.0446877958        0.0000000000        0.0000000000
H             0.7953122042        0.0000000000        0.0000000000
End final coordinates



     Writing all to output data dir ./.save/

     init_run     :      0.61s CPU      0.63s WALL (       1 calls)
     electrons    :     25.79s CPU     25.89s WALL (       4 calls)
     update_pot   :      1.21s CPU      1.24s WALL (       3 calls)
     forces       :      0.55s CPU      0.57s WALL (       4 calls)

     Called by init_run:
     wfcinit      :      0.05s CPU      0.05s WALL (       1 calls)
     wfcinit:atom :      0.00s CPU      0.00s WALL (       1 calls)
     wfcinit:wfcr :      0.04s CPU      0.04s WALL (       1 calls)
     potinit      :      0.38s CPU      0.39s WALL (       1 calls)
     hinit0       :      0.03s CPU      0.03s WALL (       1 calls)

     Called by electrons:
     c_bands      :      6.01s CPU      6.02s WALL (      39 calls)
     sum_band     :      3.04s CPU      3.05s WALL (      39 calls)
     v_of_rho     :     14.68s CPU     14.72s WALL (      43 calls)
     v_h          :      0.84s CPU      0.84s WALL (      43 calls)
     v_xc         :     13.84s CPU     13.88s WALL (      43 calls)
     newd         :      1.04s CPU      1.04s WALL (      43 calls)
     mix_rho      :      2.10s CPU      2.14s WALL (      39 calls)

     Called by c_bands:
     init_us_2    :      0.09s CPU      0.09s WALL (      79 calls)
     init_us_2:cp :      0.09s CPU      0.09s WALL (      79 calls)
     cegterg      :      5.95s CPU      5.96s WALL (      39 calls)

     Called by sum_band:
     sum_band:wei :      0.00s CPU      0.00s WALL (      39 calls)
     sum_band:loo :      0.93s CPU      0.93s WALL (      39 calls)
     sum_band:buf :      0.00s CPU      0.00s WALL (      39 calls)
     sum_band:ini :      0.04s CPU      0.04s WALL (      39 calls)
     sum_band:cal :      0.01s CPU      0.01s WALL (      39 calls)
     sum_band:bec :      0.00s CPU      0.00s WALL (      39 calls)
     addusdens    :      0.26s CPU      0.26s WALL (      39 calls)
     addusd:skk   :      0.08s CPU      0.08s WALL (      39 calls)
     addusd:dgemm :      0.05s CPU      0.06s WALL (      39 calls)
     addusd:qvan2 :      0.07s CPU      0.07s WALL (      39 calls)

     Called by *egterg:
     cdiaghg      :      0.00s CPU      0.00s WALL (     159 calls)
     cegterg:over :      0.07s CPU      0.07s WALL (     123 calls)
     cegterg:upda :      0.05s CPU      0.05s WALL (     123 calls)
     cegterg:last :      0.11s CPU      0.11s WALL (     100 calls)
     h_psi        :      5.64s CPU      5.64s WALL (     163 calls)
     s_psi        :      0.03s CPU      0.03s WALL (     163 calls)
     g_psi        :      0.02s CPU      0.02s WALL (     123 calls)

     Called by h_psi:
     h_psi:calbec :      0.04s CPU      0.04s WALL (     163 calls)
     vloc_psi     :      5.55s CPU      5.56s WALL (     163 calls)
     add_vuspsi   :      0.03s CPU      0.03s WALL (     163 calls)

     General routines
     calbec       :      0.05s CPU      0.05s WALL (     218 calls)
     fft          :      7.42s CPU      7.43s WALL (     484 calls)
     ffts         :      0.62s CPU      0.62s WALL (      39 calls)
     fftw         :      5.74s CPU      5.75s WALL (     590 calls)


     PWSCF        :     28.36s CPU     28.53s WALL


   This run was terminated on:   3:25: 1  28Feb2022            

=------------------------------------------------------------------------------=
   JOB DONE.
=------------------------------------------------------------------------------=
