
     Program PWSCF v.7.0 starts on 28Feb2022 at 14: 6:24 

     This program is part of the open-source Quantum ESPRESSO suite
     for quantum simulation of materials; please cite
         "P. Giannozzi et al., J. Phys.:Condens. Matter 21 395502 (2009);
         "P. Giannozzi et al., J. Phys.:Condens. Matter 29 465901 (2017);
         "P. Giannozzi et al., J. Chem. Phys. 152 154105 (2020);
          URL http://www.quantum-espresso.org", 
     in publications or presentations arising from this work. More details at
     http://www.quantum-espresso.org/quote

     Serial version
     809 MiB available memory on the printing compute node when the environment starts

     Waiting for input...
     Reading input from standard input

     Current dimensions of program PWSCF are:
     Max number of different atomic species (ntypx) = 10
     Max number of k-points (npk) =  40000
     Max angular momentum in pseudopotentials (lmaxx) =  4

    ============================================================
    |  pseudopotential report for atomic species:  1           |
    |        pseudo potential version   7   3   2              |
    ------------------------------------------------------------
    |  hydrogen            PBE                  exchange-corr  |
    |  z =   1.    zv( 1) =   1.    exfact =   5.00000         |
    |  ifpcor =  0           atomic energy =  -0.91772 Ry      |
    |  index    orbital      occupation    energy              |
    |    1        100           1.00       -0.48               |
    |  rinner =  0.5000                                        |
    |    new generation scheme:                                |
    |    nbeta =  1     kkbeta =  271     rcloc =    0.6000    |
    |    ibeta    l     epsilon   rcut                         |
    |      1       0      -0.48   0.80                         |
    ============================================================

     IMPORTANT: XC functional enforced from input :
     Exchange-correlation= BLYP
                           (   1   3   1   3   0   0   0)
     Any further DFT definition will be discarded
     Please, verify this is what you really want


     G-vector sticks info
     --------------------
     sticks:   dense  smooth     PW     G-vecs:    dense   smooth      PW
     Sum        8585    8585   2289               599161   599161   82519

     Using Slab Decomposition



     bravais-lattice index     =            1
     lattice parameter (alat)  =      30.0000  a.u.
     unit-cell volume          =   27000.0000 (a.u.)^3
     number of atoms/cell      =            2
     number of atomic types    =            1
     number of electrons       =         2.00
     number of Kohn-Sham states=            2
     kinetic-energy cutoff     =      30.0000  Ry
     charge density cutoff     =     120.0000  Ry
     scf convergence threshold =      1.0E-08
     mixing beta               =       0.7000
     number of iterations used =            8  plain     mixing
     Exchange-correlation= BLYP
                           (   1   3   1   3   0   0   0)

     celldm(1)=  30.000000  celldm(2)=   0.000000  celldm(3)=   0.000000
     celldm(4)=   0.000000  celldm(5)=   0.000000  celldm(6)=   0.000000

     crystal axes: (cart. coord. in units of alat)
               a(1) = (   1.000000   0.000000   0.000000 )  
               a(2) = (   0.000000   1.000000   0.000000 )  
               a(3) = (   0.000000   0.000000   1.000000 )  

     reciprocal axes: (cart. coord. in units 2 pi/alat)
               b(1) = (  1.000000  0.000000  0.000000 )  
               b(2) = (  0.000000  1.000000  0.000000 )  
               b(3) = (  0.000000  0.000000  1.000000 )  


     PseudoPot. # 1 for hy read from file:
     /root/q-e/pseudo/H_US.van
     MD5 check sum: a9a9bfe98ff56cf4de197d71fc46bb44
     Pseudo is Ultrasoft, Zval =  1.0
     Generated by Vanderbilt code, v. 7.3.2
     Using radial grid of  399 points,  1 beta functions with: 
                l(1) =   0
     Q(r) pseudized with  8 coefficients,  rinner =    0.500

     atomic species   valence    mass     pseudopotential
        H              1.00     1.00784     hy( 1.00)

      8 Sym. Ops. (no inversion) found


                                    s                        frac. trans.

      isym =  1     identity                                     

 cryst.   s( 1) = (     1          0          0      )
                  (     0          1          0      )
                  (     0          0          1      )

 cart.    s( 1) = (  1.0000000  0.0000000  0.0000000 )
                  (  0.0000000  1.0000000  0.0000000 )
                  (  0.0000000  0.0000000  1.0000000 )


      isym =  2     180 deg rotation - cart. axis [1,0,0]        

 cryst.   s( 2) = (     1          0          0      )
                  (     0         -1          0      )
                  (     0          0         -1      )

 cart.    s( 2) = (  1.0000000  0.0000000  0.0000000 )
                  (  0.0000000 -1.0000000  0.0000000 )
                  (  0.0000000  0.0000000 -1.0000000 )


      isym =  3      90 deg rotation - cart. axis [-1,0,0]       

 cryst.   s( 3) = (     1          0          0      )
                  (     0          0         -1      )
                  (     0          1          0      )

 cart.    s( 3) = (  1.0000000  0.0000000  0.0000000 )
                  (  0.0000000  0.0000000  1.0000000 )
                  (  0.0000000 -1.0000000  0.0000000 )


      isym =  4      90 deg rotation - cart. axis [1,0,0]        

 cryst.   s( 4) = (     1          0          0      )
                  (     0          0          1      )
                  (     0         -1          0      )

 cart.    s( 4) = (  1.0000000  0.0000000  0.0000000 )
                  (  0.0000000  0.0000000 -1.0000000 )
                  (  0.0000000  1.0000000  0.0000000 )


      isym =  5     inv. 180 deg rotation - cart. axis [0,0,1]   

 cryst.   s( 5) = (     1          0          0      )
                  (     0          1          0      )
                  (     0          0         -1      )

 cart.    s( 5) = (  1.0000000  0.0000000  0.0000000 )
                  (  0.0000000  1.0000000  0.0000000 )
                  (  0.0000000  0.0000000 -1.0000000 )


      isym =  6     inv. 180 deg rotation - cart. axis [0,1,0]   

 cryst.   s( 6) = (     1          0          0      )
                  (     0         -1          0      )
                  (     0          0          1      )

 cart.    s( 6) = (  1.0000000  0.0000000  0.0000000 )
                  (  0.0000000 -1.0000000  0.0000000 )
                  (  0.0000000  0.0000000  1.0000000 )


      isym =  7     inv. 180 deg rotation - cart. axis [0,1,1]   

 cryst.   s( 7) = (     1          0          0      )
                  (     0          0         -1      )
                  (     0         -1          0      )

 cart.    s( 7) = (  1.0000000  0.0000000  0.0000000 )
                  (  0.0000000  0.0000000 -1.0000000 )
                  (  0.0000000 -1.0000000  0.0000000 )


      isym =  8     inv. 180 deg rotation - cart. axis [0,1,-1]  

 cryst.   s( 8) = (     1          0          0      )
                  (     0          0          1      )
                  (     0          1          0      )

 cart.    s( 8) = (  1.0000000  0.0000000  0.0000000 )
                  (  0.0000000  0.0000000  1.0000000 )
                  (  0.0000000  1.0000000  0.0000000 )


     point group C_4v (4mm) 
     there are  5 classes
     the character table:

       E     2C4   C2    2s_v  2s_d 
A_1    1.00  1.00  1.00  1.00  1.00
A_2    1.00  1.00  1.00 -1.00 -1.00
B_1    1.00 -1.00  1.00  1.00 -1.00
B_2    1.00 -1.00  1.00 -1.00  1.00
E      2.00  0.00 -2.00  0.00  0.00

     the symmetry operations in each class and the name of the first element:

     E        1
          identity                                               
     2C4      3    4
           90 deg rotation - cart. axis [-1,0,0]                 
     C2       2
          180 deg rotation - cart. axis [1,0,0]                  
     2s_v     5    6
          inv. 180 deg rotation - cart. axis [0,0,1]             
     2s_d     7    8
          inv. 180 deg rotation - cart. axis [0,1,1]             

   Cartesian axes

     site n.     atom                  positions (alat units)
         1           H   tau(   1) = (   0.0000000   0.0000000   0.0000000  )
         2           H   tau(   2) = (   0.0529123   0.0000000   0.0000000  )

   Crystallographic axes

     site n.     atom                  positions (cryst. coord.)
         1           H   tau(   1) = (  0.0000000  0.0000000  0.0000000  )
         2           H   tau(   2) = (  0.0529123  0.0000000  0.0000000  )

     number of k points=     1
                       cart. coord. in units 2pi/alat
        k(    1) = (  -0.5000000  -0.5000000  -0.5000000), wk =   2.0000000

                       cryst. coord.
        k(    1) = (  -0.5000000  -0.5000000  -0.5000000), wk =   2.0000000

     Dense  grid:   599161 G-vectors     FFT dimensions: ( 108, 108, 108)

     Dynamical RAM for                 wfc:       2.29 MB

     Dynamical RAM for     wfc (w. buffer):       2.29 MB

     Dynamical RAM for           str. fact:       9.14 MB

     Dynamical RAM for           local pot:       0.00 MB

     Dynamical RAM for          nlocal pot:       2.29 MB

     Dynamical RAM for                qrad:       0.01 MB

     Dynamical RAM for          rho,v,vnew:      56.26 MB

     Dynamical RAM for               rhoin:      18.75 MB

     Dynamical RAM for            rho*nmix:     146.28 MB

     Dynamical RAM for           G-vectors:      38.86 MB

     Dynamical RAM for          h,s,v(r/c):       0.00 MB

     Dynamical RAM for          <psi|beta>:       0.00 MB

     Dynamical RAM for                 psi:       4.57 MB

     Dynamical RAM for                hpsi:       4.57 MB

     Dynamical RAM for                spsi:       4.57 MB

     Dynamical RAM for      wfcinit/wfcrot:       4.57 MB

     Dynamical RAM for           addusdens:      54.85 MB

     Estimated static dynamical RAM per process >     193.93 MB

     Estimated max dynamical RAM per process >     395.07 MB

     Initial potential from superposition of free atoms

     starting charge       2.0000, renormalised to       2.0000

     negative rho (up, down):  1.467E-02 0.000E+00
     Starting wfcs are    2 randomized atomic wfcs

     total cpu time spent up to now is        1.1 secs

     Self-consistent Calculation

     iteration #  1     ecut=    30.00 Ry     beta= 0.70
     Davidson diagonalization with overlap

---- Real-time Memory Report at c_bands before calling an iterative solver
           332 MiB given to the printing process from OS
             0 MiB allocation reported by mallinfo(arena+hblkhd)
           581 MiB available memory on the node where the printing process lives
------------------
     ethr =  1.00E-02,  avg # of iterations =  3.0

     negative rho (up, down):  1.812E-02 0.000E+00

     total cpu time spent up to now is        2.3 secs

     total energy              =      -2.30589855 Ry
     estimated scf accuracy    <       0.08663341 Ry

     iteration #  2     ecut=    30.00 Ry     beta= 0.70
     Davidson diagonalization with overlap

---- Real-time Memory Report at c_bands before calling an iterative solver
           423 MiB given to the printing process from OS
             0 MiB allocation reported by mallinfo(arena+hblkhd)
           397 MiB available memory on the node where the printing process lives
------------------
     ethr =  4.33E-03,  avg # of iterations =  1.0

     negative rho (up, down):  1.875E-02 0.000E+00

     total cpu time spent up to now is        3.3 secs

     total energy              =      -2.31156467 Ry
     estimated scf accuracy    <       0.00095409 Ry

     iteration #  3     ecut=    30.00 Ry     beta= 0.70
     Davidson diagonalization with overlap

---- Real-time Memory Report at c_bands before calling an iterative solver
           441 MiB given to the printing process from OS
             0 MiB allocation reported by mallinfo(arena+hblkhd)
           378 MiB available memory on the node where the printing process lives
------------------
     ethr =  4.77E-05,  avg # of iterations = 11.0

     negative rho (up, down):  1.857E-02 0.000E+00

     total cpu time spent up to now is        4.8 secs

     total energy              =      -2.31197330 Ry
     estimated scf accuracy    <       0.00001418 Ry

     iteration #  4     ecut=    30.00 Ry     beta= 0.70
     Davidson diagonalization with overlap

---- Real-time Memory Report at c_bands before calling an iterative solver
           459 MiB given to the printing process from OS
             0 MiB allocation reported by mallinfo(arena+hblkhd)
           360 MiB available memory on the node where the printing process lives
------------------
     ethr =  7.09E-07,  avg # of iterations =  5.0

     negative rho (up, down):  1.855E-02 0.000E+00

     total cpu time spent up to now is        6.1 secs

     total energy              =      -2.31198115 Ry
     estimated scf accuracy    <       0.00000039 Ry

     iteration #  5     ecut=    30.00 Ry     beta= 0.70
     Davidson diagonalization with overlap

---- Real-time Memory Report at c_bands before calling an iterative solver
           478 MiB given to the printing process from OS
             0 MiB allocation reported by mallinfo(arena+hblkhd)
           342 MiB available memory on the node where the printing process lives
------------------
     ethr =  1.97E-08,  avg # of iterations =  2.0

     negative rho (up, down):  1.856E-02 0.000E+00

     total cpu time spent up to now is        7.2 secs

     total energy              =      -2.31198027 Ry
     estimated scf accuracy    <       0.00000003 Ry

     iteration #  6     ecut=    30.00 Ry     beta= 0.70
     Davidson diagonalization with overlap

---- Real-time Memory Report at c_bands before calling an iterative solver
           496 MiB given to the printing process from OS
             0 MiB allocation reported by mallinfo(arena+hblkhd)
           323 MiB available memory on the node where the printing process lives
------------------
     ethr =  1.36E-09,  avg # of iterations =  2.0

     negative rho (up, down):  1.856E-02 0.000E+00

     total cpu time spent up to now is        8.2 secs

     End of self-consistent calculation

          k =-0.5000-0.5000-0.5000 ( 74736 PWs)   bands (ev):

    -9.8929  -0.5508

     occupation numbers 
     1.0000   0.0000

     highest occupied, lowest unoccupied level (ev):    -9.8929   -0.5508

!    total energy              =      -2.31198086 Ry
     estimated scf accuracy    <          3.1E-12 Ry

     The total energy is the sum of the following terms:
     one-electron contribution =      -3.98460464 Ry
     hartree contribution      =       2.11650838 Ry
     xc contribution           =      -1.32591652 Ry
     ewald contribution        =       0.88203193 Ry

     convergence has been achieved in   6 iterations

     Writing all to output data dir ./.save/

     init_run     :      1.01s CPU      1.05s WALL (       1 calls)
     electrons    :      7.10s CPU      7.17s WALL (       1 calls)

     Called by init_run:
     wfcinit      :      0.10s CPU      0.10s WALL (       1 calls)
     wfcinit:atom :      0.00s CPU      0.00s WALL (       1 calls)
     wfcinit:wfcr :      0.09s CPU      0.09s WALL (       1 calls)
     potinit      :      0.57s CPU      0.59s WALL (       1 calls)
     hinit0       :      0.05s CPU      0.06s WALL (       1 calls)

     Called by electrons:
     c_bands      :      2.09s CPU      2.09s WALL (       6 calls)
     sum_band     :      0.92s CPU      0.92s WALL (       6 calls)
     v_of_rho     :      3.76s CPU      3.81s WALL (       7 calls)
     v_h          :      0.26s CPU      0.26s WALL (       7 calls)
     v_xc         :      3.50s CPU      3.55s WALL (       7 calls)
     newd         :      0.33s CPU      0.34s WALL (       7 calls)
     mix_rho      :      0.43s CPU      0.45s WALL (       6 calls)

     Called by c_bands:
     init_us_2    :      0.03s CPU      0.03s WALL (      13 calls)
     init_us_2:cp :      0.02s CPU      0.03s WALL (      13 calls)
     cegterg      :      2.08s CPU      2.08s WALL (       6 calls)

     Called by sum_band:
     sum_band:wei :      0.00s CPU      0.00s WALL (       6 calls)
     sum_band:loo :      0.29s CPU      0.29s WALL (       6 calls)
     sum_band:buf :      0.00s CPU      0.00s WALL (       6 calls)
     sum_band:ini :      0.01s CPU      0.01s WALL (       6 calls)
     sum_band:cal :      0.00s CPU      0.00s WALL (       6 calls)
     sum_band:bec :      0.00s CPU      0.00s WALL (       6 calls)
     addusdens    :      0.08s CPU      0.08s WALL (       6 calls)
     addusd:skk   :      0.02s CPU      0.02s WALL (       6 calls)
     addusd:dgemm :      0.02s CPU      0.02s WALL (       6 calls)
     addusd:qvan2 :      0.02s CPU      0.02s WALL (       6 calls)

     Called by *egterg:
     cdiaghg      :      0.00s CPU      0.00s WALL (      30 calls)
     cegterg:over :      0.03s CPU      0.03s WALL (      24 calls)
     cegterg:upda :      0.02s CPU      0.02s WALL (      24 calls)
     cegterg:last :      0.04s CPU      0.04s WALL (      18 calls)
     h_psi        :      2.04s CPU      2.04s WALL (      31 calls)
     s_psi        :      0.01s CPU      0.01s WALL (      31 calls)
     g_psi        :      0.01s CPU      0.01s WALL (      24 calls)

     Called by h_psi:
     h_psi:calbec :      0.01s CPU      0.01s WALL (      31 calls)
     vloc_psi     :      2.01s CPU      2.01s WALL (      31 calls)
     add_vuspsi   :      0.01s CPU      0.01s WALL (      31 calls)

     General routines
     calbec       :      0.02s CPU      0.02s WALL (      37 calls)
     fft          :      2.27s CPU      2.28s WALL (      76 calls)
     ffts         :      0.18s CPU      0.18s WALL (       6 calls)
     fftw         :      2.05s CPU      2.05s WALL (     104 calls)


     PWSCF        :      8.18s CPU      8.31s WALL


   This run was terminated on:  14: 6:32  28Feb2022            

=------------------------------------------------------------------------------=
   JOB DONE.
=------------------------------------------------------------------------------=
