
     Program PWSCF v.7.0 starts on 28Feb2022 at  4: 6:59 

     This program is part of the open-source Quantum ESPRESSO suite
     for quantum simulation of materials; please cite
         "P. Giannozzi et al., J. Phys.:Condens. Matter 21 395502 (2009);
         "P. Giannozzi et al., J. Phys.:Condens. Matter 29 465901 (2017);
         "P. Giannozzi et al., J. Chem. Phys. 152 154105 (2020);
          URL http://www.quantum-espresso.org", 
     in publications or presentations arising from this work. More details at
     http://www.quantum-espresso.org/quote

     Serial version
     542 MiB available memory on the printing compute node when the environment starts

     Waiting for input...
     Reading input from standard input

     Current dimensions of program PWSCF are:
     Max number of different atomic species (ntypx) = 10
     Max number of k-points (npk) =  40000
     Max angular momentum in pseudopotentials (lmaxx) =  4

     File ./.update deleted, as requested

     File ./.bfgs deleted, as requested

    ============================================================
    |  pseudopotential report for atomic species:  1           |
    |        pseudo potential version   7   3   2              |
    ------------------------------------------------------------
    |  hydrogen            PBE                  exchange-corr  |
    |  z =   1.    zv( 1) =   1.    exfact =   5.00000         |
    |  ifpcor =  0           atomic energy =  -0.91772 Ry      |
    |  index    orbital      occupation    energy              |
    |    1        100           1.00       -0.48               |
    |  rinner =  0.5000                                        |
    |    new generation scheme:                                |
    |    nbeta =  1     kkbeta =  271     rcloc =    0.6000    |
    |    ibeta    l     epsilon   rcut                         |
    |      1       0      -0.48   0.80                         |
    ============================================================

     IMPORTANT: XC functional enforced from input :
     Exchange-correlation= BLYP
                           (   1   3   1   3   0   0   0)
     Any further DFT definition will be discarded
     Please, verify this is what you really want


     G-vector sticks info
     --------------------
     sticks:   dense  smooth     PW     G-vecs:    dense   smooth      PW
     Sum        8585    8585   2289               599161   599161   82519

     Using Slab Decomposition



     bravais-lattice index     =            1
     lattice parameter (alat)  =      30.0000  a.u.
     unit-cell volume          =   27000.0000 (a.u.)^3
     number of atoms/cell      =            2
     number of atomic types    =            1
     number of electrons       =         2.00
     number of Kohn-Sham states=            2
     kinetic-energy cutoff     =      30.0000  Ry
     charge density cutoff     =     120.0000  Ry
     scf convergence threshold =      1.0E-08
     mixing beta               =       0.7000
     number of iterations used =            8  plain     mixing
     energy convergence thresh.=      1.0E-04
     force convergence thresh. =      1.0E-03
     Exchange-correlation= BLYP
                           (   1   3   1   3   0   0   0)
     nstep                     =           50


     celldm(1)=  30.000000  celldm(2)=   0.000000  celldm(3)=   0.000000
     celldm(4)=   0.000000  celldm(5)=   0.000000  celldm(6)=   0.000000

     crystal axes: (cart. coord. in units of alat)
               a(1) = (   1.000000   0.000000   0.000000 )  
               a(2) = (   0.000000   1.000000   0.000000 )  
               a(3) = (   0.000000   0.000000   1.000000 )  

     reciprocal axes: (cart. coord. in units 2 pi/alat)
               b(1) = (  1.000000  0.000000  0.000000 )  
               b(2) = (  0.000000  1.000000  0.000000 )  
               b(3) = (  0.000000  0.000000  1.000000 )  


     PseudoPot. # 1 for hy read from file:
     /root/q-e/pseudo/H_US.van
     MD5 check sum: a9a9bfe98ff56cf4de197d71fc46bb44
     Pseudo is Ultrasoft, Zval =  1.0
     Generated by Vanderbilt code, v. 7.3.2
     Using radial grid of  399 points,  1 beta functions with: 
                l(1) =   0
     Q(r) pseudized with  8 coefficients,  rinner =    0.500

     atomic species   valence    mass     pseudopotential
        H              1.00     1.00784     hy( 1.00)

      8 Sym. Ops. (no inversion) found


                                    s                        frac. trans.

      isym =  1     identity                                     

 cryst.   s( 1) = (     1          0          0      )
                  (     0          1          0      )
                  (     0          0          1      )

 cart.    s( 1) = (  1.0000000  0.0000000  0.0000000 )
                  (  0.0000000  1.0000000  0.0000000 )
                  (  0.0000000  0.0000000  1.0000000 )


      isym =  2     180 deg rotation - cart. axis [1,0,0]        

 cryst.   s( 2) = (     1          0          0      )
                  (     0         -1          0      )
                  (     0          0         -1      )

 cart.    s( 2) = (  1.0000000  0.0000000  0.0000000 )
                  (  0.0000000 -1.0000000  0.0000000 )
                  (  0.0000000  0.0000000 -1.0000000 )


      isym =  3      90 deg rotation - cart. axis [-1,0,0]       

 cryst.   s( 3) = (     1          0          0      )
                  (     0          0         -1      )
                  (     0          1          0      )

 cart.    s( 3) = (  1.0000000  0.0000000  0.0000000 )
                  (  0.0000000  0.0000000  1.0000000 )
                  (  0.0000000 -1.0000000  0.0000000 )


      isym =  4      90 deg rotation - cart. axis [1,0,0]        

 cryst.   s( 4) = (     1          0          0      )
                  (     0          0          1      )
                  (     0         -1          0      )

 cart.    s( 4) = (  1.0000000  0.0000000  0.0000000 )
                  (  0.0000000  0.0000000 -1.0000000 )
                  (  0.0000000  1.0000000  0.0000000 )


      isym =  5     inv. 180 deg rotation - cart. axis [0,0,1]   

 cryst.   s( 5) = (     1          0          0      )
                  (     0          1          0      )
                  (     0          0         -1      )

 cart.    s( 5) = (  1.0000000  0.0000000  0.0000000 )
                  (  0.0000000  1.0000000  0.0000000 )
                  (  0.0000000  0.0000000 -1.0000000 )


      isym =  6     inv. 180 deg rotation - cart. axis [0,1,0]   

 cryst.   s( 6) = (     1          0          0      )
                  (     0         -1          0      )
                  (     0          0          1      )

 cart.    s( 6) = (  1.0000000  0.0000000  0.0000000 )
                  (  0.0000000 -1.0000000  0.0000000 )
                  (  0.0000000  0.0000000  1.0000000 )


      isym =  7     inv. 180 deg rotation - cart. axis [0,1,1]   

 cryst.   s( 7) = (     1          0          0      )
                  (     0          0         -1      )
                  (     0         -1          0      )

 cart.    s( 7) = (  1.0000000  0.0000000  0.0000000 )
                  (  0.0000000  0.0000000 -1.0000000 )
                  (  0.0000000 -1.0000000  0.0000000 )


      isym =  8     inv. 180 deg rotation - cart. axis [0,1,-1]  

 cryst.   s( 8) = (     1          0          0      )
                  (     0          0          1      )
                  (     0          1          0      )

 cart.    s( 8) = (  1.0000000  0.0000000  0.0000000 )
                  (  0.0000000  0.0000000  1.0000000 )
                  (  0.0000000  1.0000000  0.0000000 )


     point group C_4v (4mm) 
     there are  5 classes
     the character table:

       E     2C4   C2    2s_v  2s_d 
A_1    1.00  1.00  1.00  1.00  1.00
A_2    1.00  1.00  1.00 -1.00 -1.00
B_1    1.00 -1.00  1.00  1.00 -1.00
B_2    1.00 -1.00  1.00 -1.00  1.00
E      2.00  0.00 -2.00  0.00  0.00

     the symmetry operations in each class and the name of the first element:

     E        1
          identity                                               
     2C4      3    4
           90 deg rotation - cart. axis [-1,0,0]                 
     C2       2
          180 deg rotation - cart. axis [1,0,0]                  
     2s_v     5    6
          inv. 180 deg rotation - cart. axis [0,0,1]             
     2s_d     7    8
          inv. 180 deg rotation - cart. axis [0,1,1]             

   Cartesian axes

     site n.     atom                  positions (alat units)
         1           H   tau(   1) = (   0.0000000   0.0000000   0.0000000  )
         2           H   tau(   2) = (   0.0440936   0.0000000   0.0000000  )

   Crystallographic axes

     site n.     atom                  positions (cryst. coord.)
         1           H   tau(   1) = (  0.0000000  0.0000000  0.0000000  )
         2           H   tau(   2) = (  0.0440936  0.0000000  0.0000000  )

     number of k points=     1
                       cart. coord. in units 2pi/alat
        k(    1) = (  -0.5000000  -0.5000000  -0.5000000), wk =   2.0000000

                       cryst. coord.
        k(    1) = (  -0.5000000  -0.5000000  -0.5000000), wk =   2.0000000

     Dense  grid:   599161 G-vectors     FFT dimensions: ( 108, 108, 108)

     Dynamical RAM for                 wfc:       2.29 MB

     Dynamical RAM for     wfc (w. buffer):       2.29 MB

     Dynamical RAM for           str. fact:       9.14 MB

     Dynamical RAM for           local pot:       0.00 MB

     Dynamical RAM for          nlocal pot:       2.29 MB

     Dynamical RAM for                qrad:       0.01 MB

     Dynamical RAM for          rho,v,vnew:      56.26 MB

     Dynamical RAM for               rhoin:      18.75 MB

     Dynamical RAM for            rho*nmix:     146.28 MB

     Dynamical RAM for           G-vectors:      38.86 MB

     Dynamical RAM for          h,s,v(r/c):       0.00 MB

     Dynamical RAM for          <psi|beta>:       0.00 MB

     Dynamical RAM for                 psi:       4.57 MB

     Dynamical RAM for                hpsi:       4.57 MB

     Dynamical RAM for                spsi:       4.57 MB

     Dynamical RAM for      wfcinit/wfcrot:       4.57 MB

     Dynamical RAM for           addusdens:      54.85 MB

     Dynamical RAM for          addusforce:      77.71 MB

     Estimated static dynamical RAM per process >     193.93 MB

     Estimated max dynamical RAM per process >     417.92 MB

     Initial potential from superposition of free atoms

     starting charge       2.0000, renormalised to       2.0000

     negative rho (up, down):  1.569E-02 0.000E+00
     Starting wfcs are    2 randomized atomic wfcs

     total cpu time spent up to now is        1.1 secs

     Self-consistent Calculation

     iteration #  1     ecut=    30.00 Ry     beta= 0.70
     Davidson diagonalization with overlap

---- Real-time Memory Report at c_bands before calling an iterative solver
           331 MiB given to the printing process from OS
             0 MiB allocation reported by mallinfo(arena+hblkhd)
           316 MiB available memory on the node where the printing process lives
------------------
     ethr =  1.00E-02,  avg # of iterations =  5.0

     negative rho (up, down):  2.228E-02 0.000E+00

     total cpu time spent up to now is        2.3 secs

     total energy              =      -2.30430899 Ry
     estimated scf accuracy    <       0.13216311 Ry

     iteration #  2     ecut=    30.00 Ry     beta= 0.70
     Davidson diagonalization with overlap

---- Real-time Memory Report at c_bands before calling an iterative solver
           423 MiB given to the printing process from OS
             0 MiB allocation reported by mallinfo(arena+hblkhd)
           132 MiB available memory on the node where the printing process lives
------------------
     ethr =  6.61E-03,  avg # of iterations =  1.0

     negative rho (up, down):  2.372E-02 0.000E+00

     total cpu time spent up to now is        3.4 secs

     total energy              =      -2.31328239 Ry
     estimated scf accuracy    <       0.00124830 Ry

     iteration #  3     ecut=    30.00 Ry     beta= 0.70
     Davidson diagonalization with overlap

---- Real-time Memory Report at c_bands before calling an iterative solver
           441 MiB given to the printing process from OS
             0 MiB allocation reported by mallinfo(arena+hblkhd)
           119 MiB available memory on the node where the printing process lives
------------------
     ethr =  6.24E-05,  avg # of iterations =  9.0

     negative rho (up, down):  2.365E-02 0.000E+00

     total cpu time spent up to now is        4.8 secs

     total energy              =      -2.31374280 Ry
     estimated scf accuracy    <       0.00001323 Ry

     iteration #  4     ecut=    30.00 Ry     beta= 0.70
     Davidson diagonalization with overlap

---- Real-time Memory Report at c_bands before calling an iterative solver
           459 MiB given to the printing process from OS
             0 MiB allocation reported by mallinfo(arena+hblkhd)
           104 MiB available memory on the node where the printing process lives
------------------
     ethr =  6.62E-07,  avg # of iterations =  5.0

     negative rho (up, down):  2.366E-02 0.000E+00

     total cpu time spent up to now is        6.1 secs

     total energy              =      -2.31373587 Ry
     estimated scf accuracy    <       0.00000024 Ry

     iteration #  5     ecut=    30.00 Ry     beta= 0.70
     Davidson diagonalization with overlap

---- Real-time Memory Report at c_bands before calling an iterative solver
           478 MiB given to the printing process from OS
             0 MiB allocation reported by mallinfo(arena+hblkhd)
           140 MiB available memory on the node where the printing process lives
------------------
     ethr =  1.20E-08,  avg # of iterations =  1.0

     negative rho (up, down):  2.366E-02 0.000E+00

     total cpu time spent up to now is        7.1 secs

     End of self-consistent calculation

          k =-0.5000-0.5000-0.5000 ( 74736 PWs)   bands (ev):

   -10.5682  -0.7448

     occupation numbers 
     1.0000   0.0000

     highest occupied, lowest unoccupied level (ev):   -10.5682   -0.7448

!    total energy              =      -2.31373488 Ry
     estimated scf accuracy    <          7.9E-09 Ry

     The total energy is the sum of the following terms:
     one-electron contribution =      -4.33552649 Ry
     hartree contribution      =       2.30041203 Ry
     xc contribution           =      -1.41252120 Ry
     ewald contribution        =       1.13390078 Ry

     convergence has been achieved in   5 iterations

     Forces acting on atoms (cartesian axes, Ry/au):

     atom    1 type  1   force =    -0.08726068    0.00000000    0.00000000
     atom    2 type  1   force =     0.08726068    0.00000000    0.00000000
     The non-local contrib.  to forces
     atom    1 type  1   force =     0.11414709    0.00000000    0.00000000
     atom    2 type  1   force =    -0.11406963    0.00000000    0.00000000
     The ionic contribution  to forces
     atom    1 type  1   force =    -1.14256074    0.00000000   -0.00000000
     atom    2 type  1   force =     1.14256074   -0.00000000   -0.00000000
     The local contribution  to forces
     atom    1 type  1   force =     0.94120386    0.00000000    0.00000000
     atom    2 type  1   force =    -0.94121836    0.00000000    0.00000000
     The core correction contribution to forces
     atom    1 type  1   force =     0.00000000    0.00000000    0.00000000
     atom    2 type  1   force =     0.00000000    0.00000000    0.00000000
     The Hubbard contrib.    to forces
     atom    1 type  1   force =     0.00000000    0.00000000    0.00000000
     atom    2 type  1   force =     0.00000000    0.00000000    0.00000000
     The SCF correction term to forces
     atom    1 type  1   force =    -0.00001851    0.00000000   -0.00000000
     atom    2 type  1   force =     0.00002031   -0.00000000   -0.00000000

     Total force =     0.123405     Total SCF correction =     0.000027

     BFGS Geometry Optimization
     Energy error            =      0.0E+00 Ry
     Gradient error          =      8.7E-02 Ry/Bohr

     number of scf cycles    =   1
     number of bfgs steps    =   0

     energy             new  =      -2.3137348765 Ry

     new trust radius        =       0.0872606782 bohr
     new conv_thr            =       0.0000000100 Ry


ATOMIC_POSITIONS (angstrom)
H            -0.0461763623        0.0000000000        0.0000000000
H             0.7461763623        0.0000000000        0.0000000000



     Writing config-only to output data dir ./.save/
     NEW-OLD atomic charge density approx. for the potential

     negative rho (up, down):  2.196E-02 0.000E+00

     total cpu time spent up to now is        8.1 secs

     Self-consistent Calculation

     iteration #  1     ecut=    30.00 Ry     beta= 0.70
     Davidson diagonalization with overlap

---- Real-time Memory Report at c_bands before calling an iterative solver
           487 MiB given to the printing process from OS
             0 MiB allocation reported by mallinfo(arena+hblkhd)
           363 MiB available memory on the node where the printing process lives
------------------
     ethr =  1.00E-06,  avg # of iterations =  9.0

     negative rho (up, down):  2.023E-02 0.000E+00

     total cpu time spent up to now is        9.7 secs

     total energy              =      -2.31725303 Ry
     estimated scf accuracy    <       0.00250974 Ry

     iteration #  2     ecut=    30.00 Ry     beta= 0.70
     Davidson diagonalization with overlap

---- Real-time Memory Report at c_bands before calling an iterative solver
           487 MiB given to the printing process from OS
             0 MiB allocation reported by mallinfo(arena+hblkhd)
           182 MiB available memory on the node where the printing process lives
------------------
     ethr =  1.25E-04,  avg # of iterations =  1.0

     negative rho (up, down):  1.996E-02 0.000E+00

     total cpu time spent up to now is       10.7 secs

     total energy              =      -2.31766652 Ry
     estimated scf accuracy    <       0.00002689 Ry

     iteration #  3     ecut=    30.00 Ry     beta= 0.70
     Davidson diagonalization with overlap

---- Real-time Memory Report at c_bands before calling an iterative solver
           487 MiB given to the printing process from OS
             0 MiB allocation reported by mallinfo(arena+hblkhd)
           164 MiB available memory on the node where the printing process lives
------------------
     ethr =  1.34E-06,  avg # of iterations =  7.0

     negative rho (up, down):  1.993E-02 0.000E+00

     total cpu time spent up to now is       12.0 secs

     total energy              =      -2.31767261 Ry
     estimated scf accuracy    <       0.00000165 Ry

     iteration #  4     ecut=    30.00 Ry     beta= 0.70
     Davidson diagonalization with overlap

---- Real-time Memory Report at c_bands before calling an iterative solver
           487 MiB given to the printing process from OS
             0 MiB allocation reported by mallinfo(arena+hblkhd)
           145 MiB available memory on the node where the printing process lives
------------------
     ethr =  8.23E-08,  avg # of iterations =  1.0

     negative rho (up, down):  1.993E-02 0.000E+00

     total cpu time spent up to now is       13.0 secs

     End of self-consistent calculation

          k =-0.5000-0.5000-0.5000 ( 74736 PWs)   bands (ev):

   -10.1067  -0.5446

     occupation numbers 
     1.0000   0.0000

     highest occupied, lowest unoccupied level (ev):   -10.1067   -0.5446

!    total energy              =      -2.31767427 Ry
     estimated scf accuracy    <          6.7E-10 Ry

     The total energy is the sum of the following terms:
     one-electron contribution =      -4.09749778 Ry
     hartree contribution      =       2.17557404 Ry
     xc contribution           =      -1.35350451 Ry
     ewald contribution        =       0.95775397 Ry

     convergence has been achieved in   4 iterations

     Forces acting on atoms (cartesian axes, Ry/au):

     atom    1 type  1   force =     0.04949220    0.00000000    0.00000000
     atom    2 type  1   force =    -0.04949220    0.00000000    0.00000000
     The non-local contrib.  to forces
     atom    1 type  1   force =     0.09482483    0.00000000    0.00000000
     atom    2 type  1   force =    -0.09506857    0.00000000    0.00000000
     The ionic contribution  to forces
     atom    1 type  1   force =    -0.89159420   -0.00000000   -0.00000000
     atom    2 type  1   force =     0.89159420   -0.00000000   -0.00000000
     The local contribution  to forces
     atom    1 type  1   force =     0.84612178    0.00000000    0.00000000
     atom    2 type  1   force =    -0.84612342    0.00000000    0.00000000
     The core correction contribution to forces
     atom    1 type  1   force =     0.00000000    0.00000000    0.00000000
     atom    2 type  1   force =     0.00000000    0.00000000    0.00000000
     The Hubbard contrib.    to forces
     atom    1 type  1   force =     0.00000000    0.00000000    0.00000000
     atom    2 type  1   force =     0.00000000    0.00000000    0.00000000
     The SCF correction term to forces
     atom    1 type  1   force =     0.00001389    0.00000000   -0.00000000
     atom    2 type  1   force =    -0.00002031   -0.00000000    0.00000000

     Total force =     0.069993     Total SCF correction =     0.000025
     Energy error            =      3.9E-03 Ry
     Gradient error          =      4.9E-02 Ry/Bohr

     number of scf cycles    =   2
     number of bfgs steps    =   1

     energy             old  =      -2.3137348765 Ry
     energy             new  =      -2.3176742709 Ry

     CASE: energy            _new < energy            _old

     new trust radius        =       0.0315804897 bohr
     new conv_thr            =       0.0000000039 Ry


ATOMIC_POSITIONS (angstrom)
H            -0.0294646868        0.0000000000        0.0000000000
H             0.7294646868        0.0000000000        0.0000000000



     Writing config-only to output data dir ./.save/
     NEW-OLD atomic charge density approx. for the potential

     negative rho (up, down):  2.029E-02 0.000E+00

     total cpu time spent up to now is       14.1 secs

     Self-consistent Calculation

     iteration #  1     ecut=    30.00 Ry     beta= 0.70
     Davidson diagonalization with overlap

---- Real-time Memory Report at c_bands before calling an iterative solver
           487 MiB given to the printing process from OS
             0 MiB allocation reported by mallinfo(arena+hblkhd)
           363 MiB available memory on the node where the printing process lives
------------------
     ethr =  1.00E-06,  avg # of iterations =  6.0

     negative rho (up, down):  2.106E-02 0.000E+00

     total cpu time spent up to now is       15.5 secs

     total energy              =      -2.31904809 Ry
     estimated scf accuracy    <       0.00029282 Ry

     iteration #  2     ecut=    30.00 Ry     beta= 0.70
     Davidson diagonalization with overlap

---- Real-time Memory Report at c_bands before calling an iterative solver
           487 MiB given to the printing process from OS
             0 MiB allocation reported by mallinfo(arena+hblkhd)
           182 MiB available memory on the node where the printing process lives
------------------
     ethr =  1.46E-05,  avg # of iterations =  1.0

     negative rho (up, down):  2.124E-02 0.000E+00

     total cpu time spent up to now is       16.5 secs

     total energy              =      -2.31897882 Ry
     estimated scf accuracy    <       0.00000333 Ry

     iteration #  3     ecut=    30.00 Ry     beta= 0.70
     Davidson diagonalization with overlap

---- Real-time Memory Report at c_bands before calling an iterative solver
           487 MiB given to the printing process from OS
             0 MiB allocation reported by mallinfo(arena+hblkhd)
           164 MiB available memory on the node where the printing process lives
------------------
     ethr =  1.67E-07,  avg # of iterations =  3.0

     negative rho (up, down):  2.127E-02 0.000E+00

     total cpu time spent up to now is       17.6 secs

     total energy              =      -2.31896088 Ry
     estimated scf accuracy    <       0.00000014 Ry

     iteration #  4     ecut=    30.00 Ry     beta= 0.70
     Davidson diagonalization with overlap

---- Real-time Memory Report at c_bands before calling an iterative solver
           487 MiB given to the printing process from OS
             0 MiB allocation reported by mallinfo(arena+hblkhd)
           145 MiB available memory on the node where the printing process lives
------------------
     ethr =  7.09E-09,  avg # of iterations =  2.0

     negative rho (up, down):  2.127E-02 0.000E+00

     total cpu time spent up to now is       18.6 secs

     End of self-consistent calculation

          k =-0.5000-0.5000-0.5000 ( 74736 PWs)   bands (ev):

   -10.2666  -0.6078

     occupation numbers 
     1.0000   0.0000

     highest occupied, lowest unoccupied level (ev):   -10.2666   -0.6078

!    total energy              =      -2.31896121 Ry
     estimated scf accuracy    <          4.8E-10 Ry

     The total energy is the sum of the following terms:
     one-electron contribution =      -4.18073144 Ry
     hartree contribution      =       2.21932544 Ry
     xc contribution           =      -1.37410515 Ry
     ewald contribution        =       1.01654994 Ry

     convergence has been achieved in   4 iterations

     Forces acting on atoms (cartesian axes, Ry/au):

     atom    1 type  1   force =     0.01172606    0.00000000    0.00000000
     atom    2 type  1   force =    -0.01172606    0.00000000    0.00000000
     The non-local contrib.  to forces
     atom    1 type  1   force =     0.10395162    0.00000000    0.00000000
     atom    2 type  1   force =    -0.10391184    0.00000000    0.00000000
     The ionic contribution  to forces
     atom    1 type  1   force =    -0.97191748    0.00000000   -0.00000000
     atom    2 type  1   force =     0.97191748    0.00000000   -0.00000000
     The local contribution  to forces
     atom    1 type  1   force =     0.87972282    0.00000000    0.00000000
     atom    2 type  1   force =    -0.87972067    0.00000000    0.00000000
     The core correction contribution to forces
     atom    1 type  1   force =     0.00000000    0.00000000    0.00000000
     atom    2 type  1   force =     0.00000000    0.00000000    0.00000000
     The Hubbard contrib.    to forces
     atom    1 type  1   force =     0.00000000    0.00000000    0.00000000
     atom    2 type  1   force =     0.00000000    0.00000000    0.00000000
     The SCF correction term to forces
     atom    1 type  1   force =    -0.00000906   -0.00000000   -0.00000000
     atom    2 type  1   force =     0.00001083   -0.00000000    0.00000000

     Total force =     0.016583     Total SCF correction =     0.000014
     Energy error            =      1.3E-03 Ry
     Gradient error          =      1.2E-02 Ry/Bohr

     number of scf cycles    =   3
     number of bfgs steps    =   2

     energy             old  =      -2.3176742709 Ry
     energy             new  =      -2.3189612055 Ry

     CASE: energy            _new < energy            _old

     new trust radius        =       0.0098054746 bohr
     new conv_thr            =       0.0000000012 Ry


ATOMIC_POSITIONS (angstrom)
H            -0.0242758532        0.0000000000        0.0000000000
H             0.7242758532        0.0000000000        0.0000000000



     Writing config-only to output data dir ./.save/
     NEW-OLD atomic charge density approx. for the potential

     negative rho (up, down):  2.141E-02 0.000E+00

     total cpu time spent up to now is       19.7 secs

     Self-consistent Calculation

     iteration #  1     ecut=    30.00 Ry     beta= 0.70
     Davidson diagonalization with overlap

---- Real-time Memory Report at c_bands before calling an iterative solver
           487 MiB given to the printing process from OS
             0 MiB allocation reported by mallinfo(arena+hblkhd)
           363 MiB available memory on the node where the printing process lives
------------------
     ethr =  1.00E-06,  avg # of iterations =  6.0

     negative rho (up, down):  2.165E-02 0.000E+00

     total cpu time spent up to now is       21.0 secs

     total energy              =      -2.31885004 Ry
     estimated scf accuracy    <       0.00003011 Ry

     iteration #  2     ecut=    30.00 Ry     beta= 0.70
     Davidson diagonalization with overlap

---- Real-time Memory Report at c_bands before calling an iterative solver
           487 MiB given to the printing process from OS
             0 MiB allocation reported by mallinfo(arena+hblkhd)
           182 MiB available memory on the node where the printing process lives
------------------
     ethr =  1.51E-06,  avg # of iterations =  1.0

     negative rho (up, down):  2.171E-02 0.000E+00

     total cpu time spent up to now is       22.0 secs

     total energy              =      -2.31882545 Ry
     estimated scf accuracy    <       0.00000036 Ry

     iteration #  3     ecut=    30.00 Ry     beta= 0.70
     Davidson diagonalization with overlap

---- Real-time Memory Report at c_bands before calling an iterative solver
           487 MiB given to the printing process from OS
             0 MiB allocation reported by mallinfo(arena+hblkhd)
           163 MiB available memory on the node where the printing process lives
------------------
     ethr =  1.79E-08,  avg # of iterations =  2.0

     negative rho (up, down):  2.172E-02 0.000E+00

     total cpu time spent up to now is       23.1 secs

     total energy              =      -2.31881895 Ry
     estimated scf accuracy    <       0.00000002 Ry

     iteration #  4     ecut=    30.00 Ry     beta= 0.70
     Davidson diagonalization with overlap

---- Real-time Memory Report at c_bands before calling an iterative solver
           487 MiB given to the printing process from OS
             0 MiB allocation reported by mallinfo(arena+hblkhd)
           145 MiB available memory on the node where the printing process lives
------------------
     ethr =  7.67E-10,  avg # of iterations =  2.0

     negative rho (up, down):  2.172E-02 0.000E+00

     total cpu time spent up to now is       24.1 secs

     End of self-consistent calculation

          k =-0.5000-0.5000-0.5000 ( 74736 PWs)   bands (ev):

   -10.3179  -0.6344

     occupation numbers 
     1.0000   0.0000

     highest occupied, lowest unoccupied level (ev):   -10.3179   -0.6344

!    total energy              =      -2.31881864 Ry
     estimated scf accuracy    <          1.1E-10 Ry

     The total energy is the sum of the following terms:
     one-electron contribution =      -4.20721745 Ry
     hartree contribution      =       2.23320100 Ry
     xc contribution           =      -1.38067679 Ry
     ewald contribution        =       1.03587460 Ry

     convergence has been achieved in   4 iterations

     Forces acting on atoms (cartesian axes, Ry/au):

     atom    1 type  1   force =    -0.00255590    0.00000000    0.00000000
     atom    2 type  1   force =     0.00255590    0.00000000    0.00000000
     The non-local contrib.  to forces
     atom    1 type  1   force =     0.10615888    0.00000000    0.00000000
     atom    2 type  1   force =    -0.10617797    0.00000000    0.00000000
     The ionic contribution  to forces
     atom    1 type  1   force =    -0.99907166    0.00000000   -0.00000000
     atom    2 type  1   force =     0.99907166    0.00000000   -0.00000000
     The local contribution  to forces
     atom    1 type  1   force =     0.89034253    0.00000000    0.00000000
     atom    2 type  1   force =    -0.89035958    0.00000000    0.00000000
     The core correction contribution to forces
     atom    1 type  1   force =     0.00000000    0.00000000    0.00000000
     atom    2 type  1   force =     0.00000000    0.00000000    0.00000000
     The Hubbard contrib.    to forces
     atom    1 type  1   force =     0.00000000    0.00000000    0.00000000
     atom    2 type  1   force =     0.00000000    0.00000000    0.00000000
     The SCF correction term to forces
     atom    1 type  1   force =    -0.00000650    0.00000000    0.00000000
     atom    2 type  1   force =     0.00000093    0.00000000    0.00000000

     Total force =     0.003615     Total SCF correction =     0.000007
     Energy error            =      1.4E-04 Ry
     Gradient error          =      2.6E-03 Ry/Bohr

     number of scf cycles    =   4
     number of bfgs steps    =   3

     energy             old  =      -2.3189612055 Ry
     energy             new  =      -2.3188186391 Ry

     CASE: energy            _new > energy            _old

     new trust radius        =       0.0030264490 bohr
     new conv_thr            =       0.0000000012 Ry


ATOMIC_POSITIONS (angstrom)
H            -0.0278631590        0.0000000000        0.0000000000
H             0.7278631590        0.0000000000        0.0000000000



     Writing config-only to output data dir ./.save/
     NEW-OLD atomic charge density approx. for the potential

     negative rho (up, down):  2.162E-02 0.000E+00

     total cpu time spent up to now is       25.1 secs

     Self-consistent Calculation

     iteration #  1     ecut=    30.00 Ry     beta= 0.70
     Davidson diagonalization with overlap

---- Real-time Memory Report at c_bands before calling an iterative solver
           487 MiB given to the printing process from OS
             0 MiB allocation reported by mallinfo(arena+hblkhd)
           363 MiB available memory on the node where the printing process lives
------------------
     ethr =  1.00E-06,  avg # of iterations =  2.0

     negative rho (up, down):  2.146E-02 0.000E+00

     total cpu time spent up to now is       26.3 secs

     total energy              =      -2.31891166 Ry
     estimated scf accuracy    <       0.00001387 Ry

     iteration #  2     ecut=    30.00 Ry     beta= 0.70
     Davidson diagonalization with overlap

---- Real-time Memory Report at c_bands before calling an iterative solver
           487 MiB given to the printing process from OS
             0 MiB allocation reported by mallinfo(arena+hblkhd)
           182 MiB available memory on the node where the printing process lives
------------------
     ethr =  6.94E-07,  avg # of iterations =  1.0

     negative rho (up, down):  2.142E-02 0.000E+00

     total cpu time spent up to now is       27.3 secs

     total energy              =      -2.31893779 Ry
     estimated scf accuracy    <       0.00000027 Ry

     iteration #  3     ecut=    30.00 Ry     beta= 0.70
     Davidson diagonalization with overlap

---- Real-time Memory Report at c_bands before calling an iterative solver
           487 MiB given to the printing process from OS
             0 MiB allocation reported by mallinfo(arena+hblkhd)
           163 MiB available memory on the node where the printing process lives
------------------
     ethr =  1.36E-08,  avg # of iterations =  2.0

     negative rho (up, down):  2.141E-02 0.000E+00

     total cpu time spent up to now is       28.3 secs

     total energy              =      -2.31893760 Ry
     estimated scf accuracy    <          9.3E-09 Ry

     iteration #  4     ecut=    30.00 Ry     beta= 0.70
     Davidson diagonalization with overlap

---- Real-time Memory Report at c_bands before calling an iterative solver
           487 MiB given to the printing process from OS
             0 MiB allocation reported by mallinfo(arena+hblkhd)
           145 MiB available memory on the node where the printing process lives
------------------
     ethr =  4.67E-10,  avg # of iterations =  2.0

     negative rho (up, down):  2.141E-02 0.000E+00

     total cpu time spent up to now is       29.3 secs

     End of self-consistent calculation

          k =-0.5000-0.5000-0.5000 ( 74736 PWs)   bands (ev):

   -10.2821  -0.6168

     occupation numbers 
     1.0000   0.0000

     highest occupied, lowest unoccupied level (ev):   -10.2821   -0.6168

!    total energy              =      -2.31893996 Ry
     estimated scf accuracy    <          7.9E-10 Ry

     The total energy is the sum of the following terms:
     one-electron contribution =      -4.18884263 Ry
     hartree contribution      =       2.22353539 Ry
     xc contribution           =      -1.37609053 Ry
     ewald contribution        =       1.02245781 Ry

     convergence has been achieved in   4 iterations

     Forces acting on atoms (cartesian axes, Ry/au):

     atom    1 type  1   force =     0.00738078    0.00000000    0.00000000
     atom    2 type  1   force =    -0.00738078    0.00000000    0.00000000
     The non-local contrib.  to forces
     atom    1 type  1   force =     0.10458910    0.00000000    0.00000000
     atom    2 type  1   force =    -0.10458286    0.00000000    0.00000000
     The ionic contribution  to forces
     atom    1 type  1   force =    -0.98017937   -0.00000000   -0.00000000
     atom    2 type  1   force =     0.98017937    0.00000000   -0.00000000
     The local contribution  to forces
     atom    1 type  1   force =     0.88296539    0.00000000    0.00000000
     atom    2 type  1   force =    -0.88297266    0.00000000    0.00000000
     The core correction contribution to forces
     atom    1 type  1   force =     0.00000000    0.00000000    0.00000000
     atom    2 type  1   force =     0.00000000    0.00000000    0.00000000
     The Hubbard contrib.    to forces
     atom    1 type  1   force =     0.00000000    0.00000000    0.00000000
     atom    2 type  1   force =     0.00000000    0.00000000    0.00000000
     The SCF correction term to forces
     atom    1 type  1   force =     0.00000196   -0.00000000   -0.00000000
     atom    2 type  1   force =    -0.00000834    0.00000000    0.00000000

     Total force =     0.010438     Total SCF correction =     0.000009
     Energy error            =      2.1E-05 Ry
     Gradient error          =      7.4E-03 Ry/Bohr

     number of scf cycles    =   5
     number of bfgs steps    =   3

     energy             old  =      -2.3189612055 Ry
     energy             new  =      -2.3189399631 Ry

     CASE: energy            _new > energy            _old

     new trust radius        =       0.0011646576 bohr
     new conv_thr            =       0.0000000012 Ry


ATOMIC_POSITIONS (angstrom)
H            -0.0288483766        0.0000000000        0.0000000000
H             0.7288483766        0.0000000000        0.0000000000



     Writing config-only to output data dir ./.save/
     NEW-OLD atomic charge density approx. for the potential

     negative rho (up, down):  2.138E-02 0.000E+00

     total cpu time spent up to now is       30.4 secs

     Self-consistent Calculation

     iteration #  1     ecut=    30.00 Ry     beta= 0.70
     Davidson diagonalization with overlap

---- Real-time Memory Report at c_bands before calling an iterative solver
           487 MiB given to the printing process from OS
             0 MiB allocation reported by mallinfo(arena+hblkhd)
           363 MiB available memory on the node where the printing process lives
------------------
     ethr =  1.00E-06,  avg # of iterations =  2.0

     Threshold (ethr) on eigenvalues was too large:
     Diagonalizing with lowered threshold

     Davidson diagonalization with overlap

---- Real-time Memory Report at c_bands before calling an iterative solver
           487 MiB given to the printing process from OS
             0 MiB allocation reported by mallinfo(arena+hblkhd)
           329 MiB available memory on the node where the printing process lives
------------------
     ethr =  4.94E-08,  avg # of iterations =  1.0

     negative rho (up, down):  2.134E-02 0.000E+00

     total cpu time spent up to now is       31.8 secs

     total energy              =      -2.31894566 Ry
     estimated scf accuracy    <       0.00000105 Ry

     iteration #  2     ecut=    30.00 Ry     beta= 0.70
     Davidson diagonalization with overlap

---- Real-time Memory Report at c_bands before calling an iterative solver
           487 MiB given to the printing process from OS
             0 MiB allocation reported by mallinfo(arena+hblkhd)
           182 MiB available memory on the node where the printing process lives
------------------
     ethr =  5.23E-08,  avg # of iterations =  1.0

     negative rho (up, down):  2.133E-02 0.000E+00

     total cpu time spent up to now is       32.8 secs

     total energy              =      -2.31895266 Ry
     estimated scf accuracy    <       0.00000001 Ry

     iteration #  3     ecut=    30.00 Ry     beta= 0.70
     Davidson diagonalization with overlap

---- Real-time Memory Report at c_bands before calling an iterative solver
           487 MiB given to the printing process from OS
             0 MiB allocation reported by mallinfo(arena+hblkhd)
           163 MiB available memory on the node where the printing process lives
------------------
     ethr =  6.73E-10,  avg # of iterations =  2.0

     negative rho (up, down):  2.133E-02 0.000E+00

     total cpu time spent up to now is       33.8 secs

     End of self-consistent calculation

          k =-0.5000-0.5000-0.5000 ( 74736 PWs)   bands (ev):

   -10.2727  -0.6108

     occupation numbers 
     1.0000   0.0000

     highest occupied, lowest unoccupied level (ev):   -10.2727   -0.6108

!    total energy              =      -2.31895318 Ry
     estimated scf accuracy    <          6.5E-10 Ry

     The total energy is the sum of the following terms:
     one-electron contribution =      -4.18385284 Ry
     hartree contribution      =       2.22095067 Ry
     xc contribution           =      -1.37486855 Ry
     ewald contribution        =       1.01881753 Ry

     convergence has been achieved in   3 iterations

     Forces acting on atoms (cartesian axes, Ry/au):

     atom    1 type  1   force =     0.01005778    0.00000000    0.00000000
     atom    2 type  1   force =    -0.01005778    0.00000000    0.00000000
     The non-local contrib.  to forces
     atom    1 type  1   force =     0.10417881    0.00000000    0.00000000
     atom    2 type  1   force =    -0.10417649    0.00000000    0.00000000
     The ionic contribution  to forces
     atom    1 type  1   force =    -0.97508447    0.00000000   -0.00000000
     atom    2 type  1   force =     0.97508447   -0.00000000   -0.00000000
     The local contribution  to forces
     atom    1 type  1   force =     0.88097465    0.00000000    0.00000000
     atom    2 type  1   force =    -0.88097576    0.00000000    0.00000000
     The core correction contribution to forces
     atom    1 type  1   force =     0.00000000    0.00000000    0.00000000
     atom    2 type  1   force =     0.00000000    0.00000000    0.00000000
     The Hubbard contrib.    to forces
     atom    1 type  1   force =     0.00000000    0.00000000    0.00000000
     atom    2 type  1   force =     0.00000000    0.00000000    0.00000000
     The SCF correction term to forces
     atom    1 type  1   force =    -0.00001639   -0.00000000    0.00000000
     atom    2 type  1   force =     0.00000481   -0.00000000    0.00000000

     Total force =     0.014224     Total SCF correction =     0.000017
     Energy error            =      8.0E-06 Ry
     Gradient error          =      1.0E-02 Ry/Bohr

     number of scf cycles    =   6
     number of bfgs steps    =   3

     energy             old  =      -2.3189612055 Ry
     energy             new  =      -2.3189531783 Ry

     CASE: energy            _new > energy            _old

     new trust radius        =       0.0004500603 bohr
     new conv_thr            =       0.0000000012 Ry


ATOMIC_POSITIONS (angstrom)
H            -0.0292265252        0.0000000000        0.0000000000
H             0.7292265252        0.0000000000        0.0000000000



     Writing config-only to output data dir ./.save/
     NEW-OLD atomic charge density approx. for the potential

     negative rho (up, down):  2.132E-02 0.000E+00

     total cpu time spent up to now is       35.0 secs

     Self-consistent Calculation

     iteration #  1     ecut=    30.00 Ry     beta= 0.70
     Davidson diagonalization with overlap

---- Real-time Memory Report at c_bands before calling an iterative solver
           487 MiB given to the printing process from OS
             0 MiB allocation reported by mallinfo(arena+hblkhd)
           363 MiB available memory on the node where the printing process lives
------------------
     ethr =  1.00E-06,  avg # of iterations =  2.0

     Threshold (ethr) on eigenvalues was too large:
     Diagonalizing with lowered threshold

     Davidson diagonalization with overlap

---- Real-time Memory Report at c_bands before calling an iterative solver
           487 MiB given to the printing process from OS
             0 MiB allocation reported by mallinfo(arena+hblkhd)
           329 MiB available memory on the node where the printing process lives
------------------
     ethr =  7.55E-09,  avg # of iterations =  1.0

     negative rho (up, down):  2.130E-02 0.000E+00

     total cpu time spent up to now is       36.5 secs

     total energy              =      -2.31895541 Ry
     estimated scf accuracy    <       0.00000016 Ry

     iteration #  2     ecut=    30.00 Ry     beta= 0.70
     Davidson diagonalization with overlap

---- Real-time Memory Report at c_bands before calling an iterative solver
           487 MiB given to the printing process from OS
             0 MiB allocation reported by mallinfo(arena+hblkhd)
           182 MiB available memory on the node where the printing process lives
------------------
     ethr =  8.01E-09,  avg # of iterations =  2.0

     negative rho (up, down):  2.129E-02 0.000E+00

     total cpu time spent up to now is       37.5 secs

     total energy              =      -2.31895910 Ry
     estimated scf accuracy    <          2.1E-09 Ry

     iteration #  3     ecut=    30.00 Ry     beta= 0.70
     Davidson diagonalization with overlap

---- Real-time Memory Report at c_bands before calling an iterative solver
           487 MiB given to the printing process from OS
             0 MiB allocation reported by mallinfo(arena+hblkhd)
           163 MiB available memory on the node where the printing process lives
------------------
     ethr =  1.07E-10,  avg # of iterations =  2.0

     negative rho (up, down):  2.129E-02 0.000E+00

     total cpu time spent up to now is       38.5 secs

     End of self-consistent calculation

          k =-0.5000-0.5000-0.5000 ( 74736 PWs)   bands (ev):

   -10.2688  -0.6090

     occupation numbers 
     1.0000   0.0000

     highest occupied, lowest unoccupied level (ev):   -10.2688   -0.6090

!    total energy              =      -2.31895724 Ry
     estimated scf accuracy    <          1.6E-10 Ry

     The total energy is the sum of the following terms:
     one-electron contribution =      -4.18193590 Ry
     hartree contribution      =       2.21995051 Ry
     xc contribution           =      -1.37439718 Ry
     ewald contribution        =       1.01742534 Ry

     convergence has been achieved in   3 iterations

     Forces acting on atoms (cartesian axes, Ry/au):

     atom    1 type  1   force =     0.01107811    0.00000000    0.00000000
     atom    2 type  1   force =    -0.01107811    0.00000000    0.00000000
     The non-local contrib.  to forces
     atom    1 type  1   force =     0.10403845    0.00000000    0.00000000
     atom    2 type  1   force =    -0.10400477    0.00000000    0.00000000
     The ionic contribution  to forces
     atom    1 type  1   force =    -0.97313947    0.00000000   -0.00000000
     atom    2 type  1   force =     0.97313947    0.00000000   -0.00000000
     The local contribution  to forces
     atom    1 type  1   force =     0.88020325    0.00000000    0.00000000
     atom    2 type  1   force =    -0.88020228    0.00000000    0.00000000
     The core correction contribution to forces
     atom    1 type  1   force =     0.00000000    0.00000000    0.00000000
     atom    2 type  1   force =     0.00000000    0.00000000    0.00000000
     The Hubbard contrib.    to forces
     atom    1 type  1   force =     0.00000000    0.00000000    0.00000000
     atom    2 type  1   force =     0.00000000    0.00000000    0.00000000
     The SCF correction term to forces
     atom    1 type  1   force =    -0.00000998   -0.00000000   -0.00000000
     atom    2 type  1   force =     0.00000361   -0.00000000    0.00000000

     Total force =     0.015667     Total SCF correction =     0.000011
     Energy error            =      4.0E-06 Ry
     Gradient error          =      1.1E-02 Ry/Bohr

     number of scf cycles    =   7
     number of bfgs steps    =   3

     energy             old  =      -2.3189612055 Ry
     energy             new  =      -2.3189572379 Ry

     CASE: energy            _new > energy            _old

     new trust radius        =       0.0001635504 bohr
     new conv_thr            =       0.0000000012 Ry


ATOMIC_POSITIONS (angstrom)
H            -0.0293781397        0.0000000000        0.0000000000
H             0.7293781397        0.0000000000        0.0000000000



     Writing config-only to output data dir ./.save/
     NEW-OLD atomic charge density approx. for the potential

     negative rho (up, down):  2.129E-02 0.000E+00

     total cpu time spent up to now is       39.6 secs

     Self-consistent Calculation

     iteration #  1     ecut=    30.00 Ry     beta= 0.70
     Davidson diagonalization with overlap

---- Real-time Memory Report at c_bands before calling an iterative solver
           487 MiB given to the printing process from OS
             0 MiB allocation reported by mallinfo(arena+hblkhd)
           363 MiB available memory on the node where the printing process lives
------------------
     ethr =  1.00E-06,  avg # of iterations =  2.0

     Threshold (ethr) on eigenvalues was too large:
     Diagonalizing with lowered threshold

     Davidson diagonalization with overlap

---- Real-time Memory Report at c_bands before calling an iterative solver
           487 MiB given to the printing process from OS
             0 MiB allocation reported by mallinfo(arena+hblkhd)
           329 MiB available memory on the node where the printing process lives
------------------
     ethr =  1.26E-09,  avg # of iterations =  1.0

     negative rho (up, down):  2.128E-02 0.000E+00

     total cpu time spent up to now is       41.0 secs

     total energy              =      -2.31895976 Ry
     estimated scf accuracy    <       0.00000003 Ry

     iteration #  2     ecut=    30.00 Ry     beta= 0.70
     Davidson diagonalization with overlap

---- Real-time Memory Report at c_bands before calling an iterative solver
           487 MiB given to the printing process from OS
             0 MiB allocation reported by mallinfo(arena+hblkhd)
           182 MiB available memory on the node where the printing process lives
------------------
     ethr =  1.35E-09,  avg # of iterations =  2.0

     negative rho (up, down):  2.128E-02 0.000E+00

     total cpu time spent up to now is       42.0 secs

     End of self-consistent calculation

          k =-0.5000-0.5000-0.5000 ( 74736 PWs)   bands (ev):

   -10.2672  -0.6088

     occupation numbers 
     1.0000   0.0000

     highest occupied, lowest unoccupied level (ev):   -10.2672   -0.6088

!    total energy              =      -2.31896041 Ry
     estimated scf accuracy    <          3.2E-10 Ry

     The total energy is the sum of the following terms:
     one-electron contribution =      -4.18115771 Ry
     hartree contribution      =       2.21953036 Ry
     xc contribution           =      -1.37420100 Ry
     ewald contribution        =       1.01686793 Ry

     convergence has been achieved in   2 iterations

     Forces acting on atoms (cartesian axes, Ry/au):

     atom    1 type  1   force =     0.01148236    0.00000000    0.00000000
     atom    2 type  1   force =    -0.01148236    0.00000000    0.00000000
     The non-local contrib.  to forces
     atom    1 type  1   force =     0.10399158    0.00000000    0.00000000
     atom    2 type  1   force =    -0.10393590    0.00000000    0.00000000
     The ionic contribution  to forces
     atom    1 type  1   force =    -0.97236128   -0.00000000   -0.00000000
     atom    2 type  1   force =     0.97236128    0.00000000   -0.00000000
     The local contribution  to forces
     atom    1 type  1   force =     0.87988489    0.00000000    0.00000000
     atom    2 type  1   force =    -0.87988291    0.00000000    0.00000000
     The core correction contribution to forces
     atom    1 type  1   force =     0.00000000    0.00000000    0.00000000
     atom    2 type  1   force =     0.00000000    0.00000000    0.00000000
     The Hubbard contrib.    to forces
     atom    1 type  1   force =     0.00000000    0.00000000    0.00000000
     atom    2 type  1   force =     0.00000000    0.00000000    0.00000000
     The SCF correction term to forces
     atom    1 type  1   force =    -0.00000055    0.00000000   -0.00000000
     atom    2 type  1   force =     0.00000744   -0.00000000    0.00000000

     Total force =     0.016239     Total SCF correction =     0.000007
     Energy error            =      7.9E-07 Ry
     Gradient error          =      1.1E-02 Ry/Bohr

     number of scf cycles    =   8
     number of bfgs steps    =   3

     energy             old  =      -2.3189612055 Ry
     energy             new  =      -2.3189604117 Ry

     CASE: energy            _new > energy            _old

     new trust radius        =       0.0000677529 bohr

     trust_radius < trust_radius_min

     resetting bfgs history

     new conv_thr            =       0.0000000012 Ry


ATOMIC_POSITIONS (angstrom)
H            -0.0232595206        0.0000000000        0.0000000000
H             0.7232595206        0.0000000000        0.0000000000



     Writing config-only to output data dir ./.save/
     NEW-OLD atomic charge density approx. for the potential

     negative rho (up, down):  2.144E-02 0.000E+00

     total cpu time spent up to now is       43.1 secs

     Self-consistent Calculation

     iteration #  1     ecut=    30.00 Ry     beta= 0.70
     Davidson diagonalization with overlap

---- Real-time Memory Report at c_bands before calling an iterative solver
           487 MiB given to the printing process from OS
             0 MiB allocation reported by mallinfo(arena+hblkhd)
           363 MiB available memory on the node where the printing process lives
------------------
     ethr =  1.00E-06,  avg # of iterations =  3.0

     negative rho (up, down):  2.173E-02 0.000E+00

     total cpu time spent up to now is       44.3 secs

     total energy              =      -2.31879402 Ry
     estimated scf accuracy    <       0.00004236 Ry

     iteration #  2     ecut=    30.00 Ry     beta= 0.70
     Davidson diagonalization with overlap

---- Real-time Memory Report at c_bands before calling an iterative solver
           487 MiB given to the printing process from OS
             0 MiB allocation reported by mallinfo(arena+hblkhd)
           182 MiB available memory on the node where the printing process lives
------------------
     ethr =  2.12E-06,  avg # of iterations =  2.0

     negative rho (up, down):  2.180E-02 0.000E+00

     total cpu time spent up to now is       45.4 secs

     total energy              =      -2.31876568 Ry
     estimated scf accuracy    <       0.00000049 Ry

     iteration #  3     ecut=    30.00 Ry     beta= 0.70
     Davidson diagonalization with overlap

---- Real-time Memory Report at c_bands before calling an iterative solver
           487 MiB given to the printing process from OS
             0 MiB allocation reported by mallinfo(arena+hblkhd)
           163 MiB available memory on the node where the printing process lives
------------------
     ethr =  2.44E-08,  avg # of iterations =  2.0

     negative rho (up, down):  2.181E-02 0.000E+00

     total cpu time spent up to now is       46.4 secs

     total energy              =      -2.31875758 Ry
     estimated scf accuracy    <       0.00000002 Ry

     iteration #  4     ecut=    30.00 Ry     beta= 0.70
     Davidson diagonalization with overlap

---- Real-time Memory Report at c_bands before calling an iterative solver
           487 MiB given to the printing process from OS
             0 MiB allocation reported by mallinfo(arena+hblkhd)
           145 MiB available memory on the node where the printing process lives
------------------
     ethr =  1.07E-09,  avg # of iterations =  2.0

     negative rho (up, down):  2.181E-02 0.000E+00

     total cpu time spent up to now is       47.4 secs

     End of self-consistent calculation

          k =-0.5000-0.5000-0.5000 ( 74736 PWs)   bands (ev):

   -10.3281  -0.6414

     occupation numbers 
     1.0000   0.0000

     highest occupied, lowest unoccupied level (ev):   -10.3281   -0.6414

!    total energy              =      -2.31875865 Ry
     estimated scf accuracy    <          5.2E-11 Ry

     The total energy is the sum of the following terms:
     one-electron contribution =      -4.21243938 Ry
     hartree contribution      =       2.23593202 Ry
     xc contribution           =      -1.38197396 Ry
     ewald contribution        =       1.03972267 Ry

     convergence has been achieved in   4 iterations

     Forces acting on atoms (cartesian axes, Ry/au):

     atom    1 type  1   force =    -0.00547539    0.00000000    0.00000000
     atom    2 type  1   force =     0.00547539    0.00000000    0.00000000
     The non-local contrib.  to forces
     atom    1 type  1   force =     0.10660705    0.00000000    0.00000000
     atom    2 type  1   force =    -0.10660862    0.00000000    0.00000000
     The ionic contribution  to forces
     atom    1 type  1   force =    -1.00452336    0.00000000   -0.00000000
     atom    2 type  1   force =     1.00452336    0.00000000   -0.00000000
     The local contribution  to forces
     atom    1 type  1   force =     0.89243287    0.00000000    0.00000000
     atom    2 type  1   force =    -0.89245455    0.00000000    0.00000000
     The core correction contribution to forces
     atom    1 type  1   force =     0.00000000    0.00000000    0.00000000
     atom    2 type  1   force =     0.00000000    0.00000000    0.00000000
     The Hubbard contrib.    to forces
     atom    1 type  1   force =     0.00000000    0.00000000    0.00000000
     atom    2 type  1   force =     0.00000000    0.00000000    0.00000000
     The SCF correction term to forces
     atom    1 type  1   force =    -0.00000463   -0.00000000   -0.00000000
     atom    2 type  1   force =     0.00000252   -0.00000000    0.00000000

     Total force =     0.007743     Total SCF correction =     0.000005
     Energy error            =      2.0E-04 Ry
     Gradient error          =      5.5E-03 Ry/Bohr

     number of scf cycles    =   9
     number of bfgs steps    =   3

     energy             old  =      -2.3189612055 Ry
     energy             new  =      -2.3187586528 Ry

     CASE: energy            _new > energy            _old

     new trust radius        =       0.0033762492 bohr
     new conv_thr            =       0.0000000012 Ry


ATOMIC_POSITIONS (angstrom)
H            -0.0276780527        0.0000000000        0.0000000000
H             0.7276780527        0.0000000000        0.0000000000



     Writing config-only to output data dir ./.save/
     NEW-OLD atomic charge density approx. for the potential

     negative rho (up, down):  2.168E-02 0.000E+00

     total cpu time spent up to now is       48.5 secs

     Self-consistent Calculation

     iteration #  1     ecut=    30.00 Ry     beta= 0.70
     Davidson diagonalization with overlap

---- Real-time Memory Report at c_bands before calling an iterative solver
           487 MiB given to the printing process from OS
             0 MiB allocation reported by mallinfo(arena+hblkhd)
           363 MiB available memory on the node where the printing process lives
------------------
     ethr =  1.00E-06,  avg # of iterations =  3.0

     negative rho (up, down):  2.148E-02 0.000E+00

     total cpu time spent up to now is       49.7 secs

     total energy              =      -2.31890656 Ry
     estimated scf accuracy    <       0.00002234 Ry

     iteration #  2     ecut=    30.00 Ry     beta= 0.70
     Davidson diagonalization with overlap

---- Real-time Memory Report at c_bands before calling an iterative solver
           487 MiB given to the printing process from OS
             0 MiB allocation reported by mallinfo(arena+hblkhd)
           182 MiB available memory on the node where the printing process lives
------------------
     ethr =  1.12E-06,  avg # of iterations =  1.0

     negative rho (up, down):  2.143E-02 0.000E+00

     total cpu time spent up to now is       50.7 secs

     total energy              =      -2.31893251 Ry
     estimated scf accuracy    <       0.00000025 Ry

     iteration #  3     ecut=    30.00 Ry     beta= 0.70
     Davidson diagonalization with overlap

---- Real-time Memory Report at c_bands before calling an iterative solver
           487 MiB given to the printing process from OS
             0 MiB allocation reported by mallinfo(arena+hblkhd)
           163 MiB available memory on the node where the printing process lives
------------------
     ethr =  1.27E-08,  avg # of iterations =  2.0

     negative rho (up, down):  2.143E-02 0.000E+00

     total cpu time spent up to now is       51.8 secs

     total energy              =      -2.31893675 Ry
     estimated scf accuracy    <       0.00000001 Ry

     iteration #  4     ecut=    30.00 Ry     beta= 0.70
     Davidson diagonalization with overlap

---- Real-time Memory Report at c_bands before calling an iterative solver
           487 MiB given to the printing process from OS
             0 MiB allocation reported by mallinfo(arena+hblkhd)
           145 MiB available memory on the node where the printing process lives
------------------
     ethr =  5.85E-10,  avg # of iterations =  2.0

     negative rho (up, down):  2.143E-02 0.000E+00

     total cpu time spent up to now is       52.8 secs

     End of self-consistent calculation

          k =-0.5000-0.5000-0.5000 ( 74736 PWs)   bands (ev):

   -10.2841  -0.6176

     occupation numbers 
     1.0000   0.0000

     highest occupied, lowest unoccupied level (ev):   -10.2841   -0.6176

!    total energy              =      -2.31893657 Ry
     estimated scf accuracy    <          4.3E-11 Ry

     The total energy is the sum of the following terms:
     one-electron contribution =      -4.18979436 Ry
     hartree contribution      =       2.22404647 Ry
     xc contribution           =      -1.37633257 Ry
     ewald contribution        =       1.02314388 Ry

     convergence has been achieved in   4 iterations

     Forces acting on atoms (cartesian axes, Ry/au):

     atom    1 type  1   force =     0.00688180    0.00000000    0.00000000
     atom    2 type  1   force =    -0.00688180    0.00000000    0.00000000
     The non-local contrib.  to forces
     atom    1 type  1   force =     0.10466759    0.00000000    0.00000000
     atom    2 type  1   force =    -0.10466471    0.00000000    0.00000000
     The ionic contribution  to forces
     atom    1 type  1   force =    -0.98114107   -0.00000000   -0.00000000
     atom    2 type  1   force =     0.98114107   -0.00000000   -0.00000000
     The local contribution  to forces
     atom    1 type  1   force =     0.88335344    0.00000000    0.00000000
     atom    2 type  1   force =    -0.88336054    0.00000000    0.00000000
     The core correction contribution to forces
     atom    1 type  1   force =     0.00000000    0.00000000    0.00000000
     atom    2 type  1   force =     0.00000000    0.00000000    0.00000000
     The Hubbard contrib.    to forces
     atom    1 type  1   force =     0.00000000    0.00000000    0.00000000
     atom    2 type  1   force =     0.00000000    0.00000000    0.00000000
     The SCF correction term to forces
     atom    1 type  1   force =    -0.00000556    0.00000000    0.00000000
     atom    2 type  1   force =    -0.00000501   -0.00000000    0.00000000

     Total force =     0.009732     Total SCF correction =     0.000007
     Energy error            =      2.5E-05 Ry
     Gradient error          =      6.9E-03 Ry/Bohr

     number of scf cycles    =  10
     number of bfgs steps    =   3

     energy             old  =      -2.3189612055 Ry
     energy             new  =      -2.3189365697 Ry

     CASE: energy            _new > energy            _old

     new trust radius        =       0.0012875288 bohr
     new conv_thr            =       0.0000000012 Ry


ATOMIC_POSITIONS (angstrom)
H            -0.0287833559        0.0000000000        0.0000000000
H             0.7287833559        0.0000000000        0.0000000000



     Writing config-only to output data dir ./.save/
     NEW-OLD atomic charge density approx. for the potential

     negative rho (up, down):  2.139E-02 0.000E+00

     total cpu time spent up to now is       53.9 secs

     Self-consistent Calculation

     iteration #  1     ecut=    30.00 Ry     beta= 0.70
     Davidson diagonalization with overlap

---- Real-time Memory Report at c_bands before calling an iterative solver
           487 MiB given to the printing process from OS
             0 MiB allocation reported by mallinfo(arena+hblkhd)
           363 MiB available memory on the node where the printing process lives
------------------
     ethr =  1.00E-06,  avg # of iterations =  2.0

     Threshold (ethr) on eigenvalues was too large:
     Diagonalizing with lowered threshold

     Davidson diagonalization with overlap

---- Real-time Memory Report at c_bands before calling an iterative solver
           487 MiB given to the printing process from OS
             0 MiB allocation reported by mallinfo(arena+hblkhd)
           329 MiB available memory on the node where the printing process lives
------------------
     ethr =  6.36E-08,  avg # of iterations =  1.0

     negative rho (up, down):  2.134E-02 0.000E+00

     total cpu time spent up to now is       55.3 secs

     total energy              =      -2.31894435 Ry
     estimated scf accuracy    <       0.00000135 Ry

     iteration #  2     ecut=    30.00 Ry     beta= 0.70
     Davidson diagonalization with overlap

---- Real-time Memory Report at c_bands before calling an iterative solver
           487 MiB given to the printing process from OS
             0 MiB allocation reported by mallinfo(arena+hblkhd)
           182 MiB available memory on the node where the printing process lives
------------------
     ethr =  6.73E-08,  avg # of iterations =  1.0

     negative rho (up, down):  2.133E-02 0.000E+00

     total cpu time spent up to now is       56.3 secs

     total energy              =      -2.31895090 Ry
     estimated scf accuracy    <       0.00000002 Ry

     iteration #  3     ecut=    30.00 Ry     beta= 0.70
     Davidson diagonalization with overlap

---- Real-time Memory Report at c_bands before calling an iterative solver
           487 MiB given to the printing process from OS
             0 MiB allocation reported by mallinfo(arena+hblkhd)
           163 MiB available memory on the node where the printing process lives
------------------
     ethr =  8.31E-10,  avg # of iterations =  2.0

     negative rho (up, down):  2.133E-02 0.000E+00

     total cpu time spent up to now is       57.3 secs

     End of self-consistent calculation

          k =-0.5000-0.5000-0.5000 ( 74736 PWs)   bands (ev):

   -10.2734  -0.6114

     occupation numbers 
     1.0000   0.0000

     highest occupied, lowest unoccupied level (ev):   -10.2734   -0.6114

!    total energy              =      -2.31895134 Ry
     estimated scf accuracy    <          6.7E-10 Ry

     The total energy is the sum of the following terms:
     one-electron contribution =      -4.18417694 Ry
     hartree contribution      =       2.22111219 Ry
     xc contribution           =      -1.37494379 Ry
     ewald contribution        =       1.01905719 Ry

     convergence has been achieved in   3 iterations

     Forces acting on atoms (cartesian axes, Ry/au):

     atom    1 type  1   force =     0.00988041    0.00000000    0.00000000
     atom    2 type  1   force =    -0.00988041    0.00000000    0.00000000
     The non-local contrib.  to forces
     atom    1 type  1   force =     0.10420387    0.00000000    0.00000000
     atom    2 type  1   force =    -0.10419921    0.00000000    0.00000000
     The ionic contribution  to forces
     atom    1 type  1   force =    -0.97541949   -0.00000000   -0.00000000
     atom    2 type  1   force =     0.97541949    0.00000000   -0.00000000
     The local contribution  to forces
     atom    1 type  1   force =     0.88110061    0.00000000    0.00000000
     atom    2 type  1   force =    -0.88110681    0.00000000    0.00000000
     The core correction contribution to forces
     atom    1 type  1   force =     0.00000000    0.00000000    0.00000000
     atom    2 type  1   force =     0.00000000    0.00000000    0.00000000
     The Hubbard contrib.    to forces
     atom    1 type  1   force =     0.00000000    0.00000000    0.00000000
     atom    2 type  1   force =     0.00000000    0.00000000    0.00000000
     The SCF correction term to forces
     atom    1 type  1   force =     0.00000053   -0.00000000   -0.00000000
     atom    2 type  1   force =     0.00001123   -0.00000000   -0.00000000

     Total force =     0.013973     Total SCF correction =     0.000011
     Energy error            =      9.9E-06 Ry
     Gradient error          =      9.9E-03 Ry/Bohr

     number of scf cycles    =  11
     number of bfgs steps    =   3

     energy             old  =      -2.3189612055 Ry
     energy             new  =      -2.3189513406 Ry

     CASE: energy            _new > energy            _old

     new trust radius        =       0.0004852356 bohr
     new conv_thr            =       0.0000000012 Ry


ATOMIC_POSITIONS (angstrom)
H            -0.0292079112        0.0000000000        0.0000000000
H             0.7292079112        0.0000000000        0.0000000000



     Writing config-only to output data dir ./.save/
     NEW-OLD atomic charge density approx. for the potential

     negative rho (up, down):  2.132E-02 0.000E+00

     total cpu time spent up to now is       58.4 secs

     Self-consistent Calculation

     iteration #  1     ecut=    30.00 Ry     beta= 0.70
     Davidson diagonalization with overlap

---- Real-time Memory Report at c_bands before calling an iterative solver
           487 MiB given to the printing process from OS
             0 MiB allocation reported by mallinfo(arena+hblkhd)
           363 MiB available memory on the node where the printing process lives
------------------
     ethr =  1.00E-06,  avg # of iterations =  2.0

     Threshold (ethr) on eigenvalues was too large:
     Diagonalizing with lowered threshold

     Davidson diagonalization with overlap

---- Real-time Memory Report at c_bands before calling an iterative solver
           487 MiB given to the printing process from OS
             0 MiB allocation reported by mallinfo(arena+hblkhd)
           329 MiB available memory on the node where the printing process lives
------------------
     ethr =  9.33E-09,  avg # of iterations =  1.0

     negative rho (up, down):  2.130E-02 0.000E+00

     total cpu time spent up to now is       59.8 secs

     total energy              =      -2.31895424 Ry
     estimated scf accuracy    <       0.00000020 Ry

     iteration #  2     ecut=    30.00 Ry     beta= 0.70
     Davidson diagonalization with overlap

---- Real-time Memory Report at c_bands before calling an iterative solver
           487 MiB given to the printing process from OS
             0 MiB allocation reported by mallinfo(arena+hblkhd)
           182 MiB available memory on the node where the printing process lives
------------------
     ethr =  9.90E-09,  avg # of iterations =  2.0

     negative rho (up, down):  2.130E-02 0.000E+00

     total cpu time spent up to now is       60.8 secs

     total energy              =      -2.31895709 Ry
     estimated scf accuracy    <          2.7E-09 Ry

     iteration #  3     ecut=    30.00 Ry     beta= 0.70
     Davidson diagonalization with overlap

---- Real-time Memory Report at c_bands before calling an iterative solver
           487 MiB given to the printing process from OS
             0 MiB allocation reported by mallinfo(arena+hblkhd)
           163 MiB available memory on the node where the printing process lives
------------------
     ethr =  1.33E-10,  avg # of iterations =  2.0

     negative rho (up, down):  2.130E-02 0.000E+00

     total cpu time spent up to now is       61.8 secs

     End of self-consistent calculation

          k =-0.5000-0.5000-0.5000 ( 74736 PWs)   bands (ev):

   -10.2690  -0.6094

     occupation numbers 
     1.0000   0.0000

     highest occupied, lowest unoccupied level (ev):   -10.2690   -0.6094

!    total energy              =      -2.31895766 Ry
     estimated scf accuracy    <          1.7E-10 Ry

     The total energy is the sum of the following terms:
     one-electron contribution =      -4.18202906 Ry
     hartree contribution      =       2.21999770 Ry
     xc contribution           =      -1.37442011 Ry
     ewald contribution        =       1.01749380 Ry

     convergence has been achieved in   3 iterations

     Forces acting on atoms (cartesian axes, Ry/au):

     atom    1 type  1   force =     0.01102605    0.00000000    0.00000000
     atom    2 type  1   force =    -0.01102605    0.00000000    0.00000000
     The non-local contrib.  to forces
     atom    1 type  1   force =     0.10404931    0.00000000    0.00000000
     atom    2 type  1   force =    -0.10400838    0.00000000    0.00000000
     The ionic contribution  to forces
     atom    1 type  1   force =    -0.97323508   -0.00000000   -0.00000000
     atom    2 type  1   force =     0.97323508   -0.00000000   -0.00000000
     The local contribution  to forces
     atom    1 type  1   force =     0.88024070    0.00000000    0.00000000
     atom    2 type  1   force =    -0.88023998    0.00000000    0.00000000
     The core correction contribution to forces
     atom    1 type  1   force =     0.00000000    0.00000000    0.00000000
     atom    2 type  1   force =     0.00000000    0.00000000    0.00000000
     The Hubbard contrib.    to forces
     atom    1 type  1   force =     0.00000000    0.00000000    0.00000000
     atom    2 type  1   force =     0.00000000    0.00000000    0.00000000
     The SCF correction term to forces
     atom    1 type  1   force =    -0.00000241    0.00000000   -0.00000000
     atom    2 type  1   force =     0.00001372    0.00000000   -0.00000000

     Total force =     0.015593     Total SCF correction =     0.000014
     Energy error            =      3.5E-06 Ry
     Gradient error          =      1.1E-02 Ry/Bohr

     number of scf cycles    =  12
     number of bfgs steps    =   3

     energy             old  =      -2.3189612055 Ry
     energy             new  =      -2.3189576586 Ry

     CASE: energy            _new > energy            _old

     new trust radius        =       0.0001849662 bohr
     new conv_thr            =       0.0000000012 Ry


ATOMIC_POSITIONS (angstrom)
H            -0.0293668069        0.0000000000        0.0000000000
H             0.7293668069        0.0000000000        0.0000000000



     Writing config-only to output data dir ./.save/
     NEW-OLD atomic charge density approx. for the potential

     negative rho (up, down):  2.129E-02 0.000E+00

     total cpu time spent up to now is       62.9 secs

     Self-consistent Calculation

     iteration #  1     ecut=    30.00 Ry     beta= 0.70
     Davidson diagonalization with overlap

---- Real-time Memory Report at c_bands before calling an iterative solver
           487 MiB given to the printing process from OS
             0 MiB allocation reported by mallinfo(arena+hblkhd)
           363 MiB available memory on the node where the printing process lives
------------------
     ethr =  1.00E-06,  avg # of iterations =  2.0

     Threshold (ethr) on eigenvalues was too large:
     Diagonalizing with lowered threshold

     Davidson diagonalization with overlap

---- Real-time Memory Report at c_bands before calling an iterative solver
           487 MiB given to the printing process from OS
             0 MiB allocation reported by mallinfo(arena+hblkhd)
           329 MiB available memory on the node where the printing process lives
------------------
     ethr =  1.36E-09,  avg # of iterations =  1.0

     negative rho (up, down):  2.128E-02 0.000E+00

     total cpu time spent up to now is       64.3 secs

     total energy              =      -2.31895938 Ry
     estimated scf accuracy    <       0.00000003 Ry

     iteration #  2     ecut=    30.00 Ry     beta= 0.70
     Davidson diagonalization with overlap

---- Real-time Memory Report at c_bands before calling an iterative solver
           487 MiB given to the printing process from OS
             0 MiB allocation reported by mallinfo(arena+hblkhd)
           182 MiB available memory on the node where the printing process lives
------------------
     ethr =  1.45E-09,  avg # of iterations =  2.0

     negative rho (up, down):  2.128E-02 0.000E+00

     total cpu time spent up to now is       65.3 secs

     End of self-consistent calculation

          k =-0.5000-0.5000-0.5000 ( 74736 PWs)   bands (ev):

   -10.2673  -0.6089

     occupation numbers 
     1.0000   0.0000

     highest occupied, lowest unoccupied level (ev):   -10.2673   -0.6089

!    total energy              =      -2.31896038 Ry
     estimated scf accuracy    <          3.7E-10 Ry

     The total energy is the sum of the following terms:
     one-electron contribution =      -4.18121467 Ry
     hartree contribution      =       2.21955940 Ry
     xc contribution           =      -1.37421469 Ry
     ewald contribution        =       1.01690958 Ry

     convergence has been achieved in   2 iterations

     Forces acting on atoms (cartesian axes, Ry/au):

     atom    1 type  1   force =     0.01145671    0.00000000    0.00000000
     atom    2 type  1   force =    -0.01145671    0.00000000    0.00000000
     The non-local contrib.  to forces
     atom    1 type  1   force =     0.10399669    0.00000000    0.00000000
     atom    2 type  1   force =    -0.10394535    0.00000000    0.00000000
     The ionic contribution  to forces
     atom    1 type  1   force =    -0.97241941   -0.00000000   -0.00000000
     atom    2 type  1   force =     0.97241941    0.00000000   -0.00000000
     The local contribution  to forces
     atom    1 type  1   force =     0.87990711    0.00000000    0.00000000
     atom    2 type  1   force =    -0.87990541    0.00000000    0.00000000
     The core correction contribution to forces
     atom    1 type  1   force =     0.00000000    0.00000000    0.00000000
     atom    2 type  1   force =     0.00000000    0.00000000    0.00000000
     The Hubbard contrib.    to forces
     atom    1 type  1   force =     0.00000000    0.00000000    0.00000000
     atom    2 type  1   force =     0.00000000    0.00000000    0.00000000
     The SCF correction term to forces
[...]

     number of scf cycles    =  47
     number of bfgs steps    =   3

     energy             old  =      -2.3189612055 Ry
     energy             new  =      -2.3189576590 Ry

     CASE: energy            _new > energy            _old

     new trust radius        =       0.0001853810 bohr
     new conv_thr            =       0.0000000012 Ry


ATOMIC_POSITIONS (angstrom)
H            -0.0293665874        0.0000000000        0.0000000000
H             0.7293665874        0.0000000000        0.0000000000



     Writing config-only to output data dir ./.save/
     NEW-OLD atomic charge density approx. for the potential

     negative rho (up, down):  2.129E-02 0.000E+00

     total cpu time spent up to now is      226.4 secs

     Self-consistent Calculation

     iteration #  1     ecut=    30.00 Ry     beta= 0.70
     Davidson diagonalization with overlap

---- Real-time Memory Report at c_bands before calling an iterative solver
           487 MiB given to the printing process from OS
             0 MiB allocation reported by mallinfo(arena+hblkhd)
           363 MiB available memory on the node where the printing process lives
------------------
     ethr =  1.00E-06,  avg # of iterations =  2.0

     Threshold (ethr) on eigenvalues was too large:
     Diagonalizing with lowered threshold

     Davidson diagonalization with overlap

---- Real-time Memory Report at c_bands before calling an iterative solver
           487 MiB given to the printing process from OS
             0 MiB allocation reported by mallinfo(arena+hblkhd)
           329 MiB available memory on the node where the printing process lives
------------------
     ethr =  1.36E-09,  avg # of iterations =  1.0

     negative rho (up, down):  2.128E-02 0.000E+00

     total cpu time spent up to now is      227.9 secs

     total energy              =      -2.31895956 Ry
     estimated scf accuracy    <       0.00000003 Ry

     iteration #  2     ecut=    30.00 Ry     beta= 0.70
     Davidson diagonalization with overlap

---- Real-time Memory Report at c_bands before calling an iterative solver
           487 MiB given to the printing process from OS
             0 MiB allocation reported by mallinfo(arena+hblkhd)
           182 MiB available memory on the node where the printing process lives
------------------
     ethr =  1.46E-09,  avg # of iterations =  2.0

     negative rho (up, down):  2.128E-02 0.000E+00

     total cpu time spent up to now is      228.8 secs

     End of self-consistent calculation

          k =-0.5000-0.5000-0.5000 ( 74736 PWs)   bands (ev):

   -10.2673  -0.6102

     occupation numbers 
     1.0000   0.0000

     highest occupied, lowest unoccupied level (ev):   -10.2673   -0.6102

!    total energy              =      -2.31896038 Ry
     estimated scf accuracy    <          3.7E-10 Ry

     The total energy is the sum of the following terms:
     one-electron contribution =      -4.18121587 Ry
     hartree contribution      =       2.21956013 Ry
     xc contribution           =      -1.37421503 Ry
     ewald contribution        =       1.01691039 Ry

     convergence has been achieved in   2 iterations

     Forces acting on atoms (cartesian axes, Ry/au):

     atom    1 type  1   force =     0.01145604    0.00000000    0.00000000
     atom    2 type  1   force =    -0.01145604    0.00000000    0.00000000
     The non-local contrib.  to forces
     atom    1 type  1   force =     0.10399676    0.00000000    0.00000000
     atom    2 type  1   force =    -0.10394541    0.00000000    0.00000000
     The ionic contribution  to forces
     atom    1 type  1   force =    -0.97242054   -0.00000000   -0.00000000
     atom    2 type  1   force =     0.97242054   -0.00000000   -0.00000000
     The local contribution  to forces
     atom    1 type  1   force =     0.87990759    0.00000000    0.00000000
     atom    2 type  1   force =    -0.87990588    0.00000000    0.00000000
     The core correction contribution to forces
     atom    1 type  1   force =     0.00000000    0.00000000    0.00000000
     atom    2 type  1   force =     0.00000000    0.00000000    0.00000000
     The Hubbard contrib.    to forces
     atom    1 type  1   force =     0.00000000    0.00000000    0.00000000
     atom    2 type  1   force =     0.00000000    0.00000000    0.00000000
     The SCF correction term to forces
     atom    1 type  1   force =     0.00000092    0.00000000   -0.00000000
     atom    2 type  1   force =     0.00000339   -0.00000000   -0.00000000

     Total force =     0.016201     Total SCF correction =     0.000004
     Energy error            =      8.3E-07 Ry
     Gradient error          =      1.1E-02 Ry/Bohr

     number of scf cycles    =  48
     number of bfgs steps    =   3

     energy             old  =      -2.3189612055 Ry
     energy             new  =      -2.3189603784 Ry

     CASE: energy            _new > energy            _old

     new trust radius        =       0.0000778752 bohr

     trust_radius < trust_radius_min

     resetting bfgs history

     new conv_thr            =       0.0000000012 Ry


ATOMIC_POSITIONS (angstrom)
H            -0.0232595206        0.0000000000        0.0000000000
H             0.7232595206        0.0000000000        0.0000000000



     Writing config-only to output data dir ./.save/
     NEW-OLD atomic charge density approx. for the potential

     negative rho (up, down):  2.144E-02 0.000E+00

     total cpu time spent up to now is      229.9 secs

     Self-consistent Calculation

     iteration #  1     ecut=    30.00 Ry     beta= 0.70
     Davidson diagonalization with overlap

---- Real-time Memory Report at c_bands before calling an iterative solver
           487 MiB given to the printing process from OS
             0 MiB allocation reported by mallinfo(arena+hblkhd)
           363 MiB available memory on the node where the printing process lives
------------------
     ethr =  1.00E-06,  avg # of iterations =  3.0

     negative rho (up, down):  2.173E-02 0.000E+00

     total cpu time spent up to now is      231.1 secs

     total energy              =      -2.31879408 Ry
     estimated scf accuracy    <       0.00004221 Ry

     iteration #  2     ecut=    30.00 Ry     beta= 0.70
     Davidson diagonalization with overlap

---- Real-time Memory Report at c_bands before calling an iterative solver
           487 MiB given to the printing process from OS
             0 MiB allocation reported by mallinfo(arena+hblkhd)
           182 MiB available memory on the node where the printing process lives
------------------
     ethr =  2.11E-06,  avg # of iterations =  2.0

     negative rho (up, down):  2.180E-02 0.000E+00

     total cpu time spent up to now is      232.2 secs

     total energy              =      -2.31876567 Ry
     estimated scf accuracy    <       0.00000049 Ry

     iteration #  3     ecut=    30.00 Ry     beta= 0.70
     Davidson diagonalization with overlap

---- Real-time Memory Report at c_bands before calling an iterative solver
           487 MiB given to the printing process from OS
             0 MiB allocation reported by mallinfo(arena+hblkhd)
           163 MiB available memory on the node where the printing process lives
------------------
     ethr =  2.43E-08,  avg # of iterations =  2.0

     negative rho (up, down):  2.181E-02 0.000E+00

     total cpu time spent up to now is      233.3 secs

     total energy              =      -2.31875757 Ry
     estimated scf accuracy    <       0.00000002 Ry

     iteration #  4     ecut=    30.00 Ry     beta= 0.70
     Davidson diagonalization with overlap

---- Real-time Memory Report at c_bands before calling an iterative solver
           487 MiB given to the printing process from OS
             0 MiB allocation reported by mallinfo(arena+hblkhd)
           145 MiB available memory on the node where the printing process lives
------------------
     ethr =  1.06E-09,  avg # of iterations =  2.0

     negative rho (up, down):  2.181E-02 0.000E+00

     total cpu time spent up to now is      234.3 secs

     End of self-consistent calculation

          k =-0.5000-0.5000-0.5000 ( 74736 PWs)   bands (ev):

   -10.3280  -0.6428

     occupation numbers 
     1.0000   0.0000

     highest occupied, lowest unoccupied level (ev):   -10.3280   -0.6428

!    total energy              =      -2.31875861 Ry
     estimated scf accuracy    <          5.4E-11 Ry

     The total energy is the sum of the following terms:
     one-electron contribution =      -4.21243972 Ry
     hartree contribution      =       2.23593263 Ry
     xc contribution           =      -1.38197418 Ry
     ewald contribution        =       1.03972267 Ry

     convergence has been achieved in   4 iterations

     Forces acting on atoms (cartesian axes, Ry/au):

     atom    1 type  1   force =    -0.00547603    0.00000000    0.00000000
     atom    2 type  1   force =     0.00547603    0.00000000    0.00000000
     The non-local contrib.  to forces
     atom    1 type  1   force =     0.10660532    0.00000000    0.00000000
     atom    2 type  1   force =    -0.10660864    0.00000000    0.00000000
     The ionic contribution  to forces
     atom    1 type  1   force =    -1.00452336    0.00000000   -0.00000000
     atom    2 type  1   force =     1.00452336    0.00000000   -0.00000000
     The local contribution  to forces
     atom    1 type  1   force =     0.89243336    0.00000000    0.00000000
     atom    2 type  1   force =    -0.89245437    0.00000000    0.00000000
     The core correction contribution to forces
     atom    1 type  1   force =     0.00000000    0.00000000    0.00000000
     atom    2 type  1   force =     0.00000000    0.00000000    0.00000000
     The Hubbard contrib.    to forces
     atom    1 type  1   force =     0.00000000    0.00000000    0.00000000
     atom    2 type  1   force =     0.00000000    0.00000000    0.00000000
     The SCF correction term to forces
     atom    1 type  1   force =    -0.00000495    0.00000000   -0.00000000
     atom    2 type  1   force =     0.00000209    0.00000000   -0.00000000

     Total force =     0.007744     Total SCF correction =     0.000005
     Energy error            =      2.0E-04 Ry
     Gradient error          =      5.5E-03 Ry/Bohr

     number of scf cycles    =  49
     number of bfgs steps    =   3

     energy             old  =      -2.3189612055 Ry
     energy             new  =      -2.3187586079 Ry

     CASE: energy            _new > energy            _old

     new trust radius        =       0.0033759318 bohr
     new conv_thr            =       0.0000000012 Ry


ATOMIC_POSITIONS (angstrom)
H            -0.0276782207        0.0000000000        0.0000000000
H             0.7276782207        0.0000000000        0.0000000000



     Writing config-only to output data dir ./.save/
     NEW-OLD atomic charge density approx. for the potential

     negative rho (up, down):  2.168E-02 0.000E+00

     total cpu time spent up to now is      235.3 secs

     Self-consistent Calculation

     iteration #  1     ecut=    30.00 Ry     beta= 0.70
     Davidson diagonalization with overlap

---- Real-time Memory Report at c_bands before calling an iterative solver
           487 MiB given to the printing process from OS
             0 MiB allocation reported by mallinfo(arena+hblkhd)
           363 MiB available memory on the node where the printing process lives
------------------
     ethr =  1.00E-06,  avg # of iterations =  3.0

     negative rho (up, down):  2.148E-02 0.000E+00

     total cpu time spent up to now is      236.5 secs

     total energy              =      -2.31890655 Ry
     estimated scf accuracy    <       0.00002234 Ry

     iteration #  2     ecut=    30.00 Ry     beta= 0.70
     Davidson diagonalization with overlap

---- Real-time Memory Report at c_bands before calling an iterative solver
           487 MiB given to the printing process from OS
             0 MiB allocation reported by mallinfo(arena+hblkhd)
           182 MiB available memory on the node where the printing process lives
------------------
     ethr =  1.12E-06,  avg # of iterations =  1.0

     negative rho (up, down):  2.143E-02 0.000E+00

     total cpu time spent up to now is      237.5 secs

     total energy              =      -2.31893257 Ry
     estimated scf accuracy    <       0.00000026 Ry

     iteration #  3     ecut=    30.00 Ry     beta= 0.70
     Davidson diagonalization with overlap

---- Real-time Memory Report at c_bands before calling an iterative solver
           487 MiB given to the printing process from OS
             0 MiB allocation reported by mallinfo(arena+hblkhd)
           163 MiB available memory on the node where the printing process lives
------------------
     ethr =  1.28E-08,  avg # of iterations =  2.0

     negative rho (up, down):  2.143E-02 0.000E+00

     total cpu time spent up to now is      238.6 secs

     total energy              =      -2.31893665 Ry
     estimated scf accuracy    <       0.00000001 Ry

     iteration #  4     ecut=    30.00 Ry     beta= 0.70
     Davidson diagonalization with overlap

---- Real-time Memory Report at c_bands before calling an iterative solver
           487 MiB given to the printing process from OS
             0 MiB allocation reported by mallinfo(arena+hblkhd)
           145 MiB available memory on the node where the printing process lives
------------------
     ethr =  5.76E-10,  avg # of iterations =  2.0

     negative rho (up, down):  2.143E-02 0.000E+00

     total cpu time spent up to now is      239.6 secs

     End of self-consistent calculation

          k =-0.5000-0.5000-0.5000 ( 74736 PWs)   bands (ev):

   -10.2841  -0.6198

     occupation numbers 
     1.0000   0.0000

     highest occupied, lowest unoccupied level (ev):   -10.2841   -0.6198

!    total energy              =      -2.31893674 Ry
     estimated scf accuracy    <          3.0E-11 Ry

     The total energy is the sum of the following terms:
     one-electron contribution =      -4.18979371 Ry
     hartree contribution      =       2.22404643 Ry
     xc contribution           =      -1.37633272 Ry
     ewald contribution        =       1.02314326 Ry

     convergence has been achieved in   4 iterations

     Forces acting on atoms (cartesian axes, Ry/au):

     atom    1 type  1   force =     0.00688135    0.00000000    0.00000000
     atom    2 type  1   force =    -0.00688135    0.00000000    0.00000000
     The non-local contrib.  to forces
     atom    1 type  1   force =     0.10466702    0.00000000    0.00000000
     atom    2 type  1   force =    -0.10466429    0.00000000    0.00000000
     The ionic contribution  to forces
     atom    1 type  1   force =    -0.98114019   -0.00000000   -0.00000000
     atom    2 type  1   force =     0.98114019    0.00000000   -0.00000000
     The local contribution  to forces
     atom    1 type  1   force =     0.88335383    0.00000000    0.00000000
     atom    2 type  1   force =    -0.88336010    0.00000000    0.00000000
     The core correction contribution to forces
     atom    1 type  1   force =     0.00000000    0.00000000    0.00000000
     atom    2 type  1   force =     0.00000000    0.00000000    0.00000000
     The Hubbard contrib.    to forces
     atom    1 type  1   force =     0.00000000    0.00000000    0.00000000
     atom    2 type  1   force =     0.00000000    0.00000000    0.00000000
     The SCF correction term to forces
     atom    1 type  1   force =    -0.00000681   -0.00000000    0.00000000
     atom    2 type  1   force =    -0.00000467   -0.00000000   -0.00000000

     Total force =     0.009732     Total SCF correction =     0.000008
     Energy error            =      2.4E-05 Ry
     Gradient error          =      6.9E-03 Ry/Bohr

     number of scf cycles    =  50
     number of bfgs steps    =   3

     energy             old  =      -2.3189612055 Ry
     energy             new  =      -2.3189367363 Ry

     CASE: energy            _new > energy            _old

     new trust radius        =       0.0012894477 bohr

     The maximum number of steps has been reached.

     End of BFGS Geometry Optimization

ATOMIC_POSITIONS (angstrom)
H            -0.0287823405        0.0000000000        0.0000000000
H             0.7287823405        0.0000000000        0.0000000000



     Writing config-only to output data dir ./.save/
     NEW-OLD atomic charge density approx. for the potential

     negative rho (up, down):  2.139E-02 0.000E+00

     Writing all to output data dir ./.save/

     init_run     :      1.00s CPU      1.05s WALL (       1 calls)
     electrons    :    185.97s CPU    187.65s WALL (      50 calls)
     update_pot   :     32.97s CPU     33.68s WALL (      50 calls)
     forces       :     13.19s CPU     13.40s WALL (      50 calls)

     Called by init_run:
     wfcinit      :      0.10s CPU      0.10s WALL (       1 calls)
     wfcinit:atom :      0.00s CPU      0.00s WALL (       1 calls)
     wfcinit:wfcr :      0.09s CPU      0.09s WALL (       1 calls)
     potinit      :      0.57s CPU      0.60s WALL (       1 calls)
     hinit0       :      0.06s CPU      0.06s WALL (       1 calls)

     Called by electrons:
     c_bands      :     46.20s CPU     46.23s WALL (     192 calls)
     sum_band     :     28.65s CPU     28.84s WALL (     192 calls)
     v_of_rho     :    118.20s CPU    119.10s WALL (     216 calls)
     v_h          :      8.18s CPU      8.18s WALL (     216 calls)
     v_xc         :    110.02s CPU    110.92s WALL (     216 calls)
     newd         :      9.94s CPU      9.96s WALL (     216 calls)
     mix_rho      :      8.32s CPU      8.94s WALL (     192 calls)

     Called by c_bands:
     init_us_2    :      0.78s CPU      0.78s WALL (     385 calls)
     init_us_2:cp :      0.78s CPU      0.78s WALL (     385 calls)
     cegterg      :     45.68s CPU     45.70s WALL (     192 calls)

     Called by sum_band:
     sum_band:wei :      0.00s CPU      0.00s WALL (     192 calls)
     sum_band:loo :      8.94s CPU      8.95s WALL (     192 calls)
     sum_band:buf :      0.00s CPU      0.00s WALL (     192 calls)
     sum_band:ini :      0.40s CPU      0.40s WALL (     192 calls)
     sum_band:cal :      0.10s CPU      0.10s WALL (     192 calls)
     sum_band:bec :      0.00s CPU      0.00s WALL (     192 calls)
     addusdens    :      2.38s CPU      2.54s WALL (     192 calls)
     addusd:skk   :      0.66s CPU      0.74s WALL (     192 calls)
     addusd:dgemm :      0.51s CPU      0.54s WALL (     192 calls)
     addusd:qvan2 :      0.65s CPU      0.68s WALL (     192 calls)

     Called by *egterg:
     cdiaghg      :      0.01s CPU      0.01s WALL (     500 calls)
     cegterg:over :      0.50s CPU      0.50s WALL (     384 calls)
     cegterg:upda :      0.35s CPU      0.35s WALL (     384 calls)
     cegterg:last :      0.70s CPU      0.70s WALL (     373 calls)
     h_psi        :     43.31s CPU     43.33s WALL (     577 calls)
     s_psi        :      0.22s CPU      0.22s WALL (     577 calls)
     g_psi        :      0.15s CPU      0.15s WALL (     384 calls)

     Called by h_psi:
     h_psi:calbec :      0.28s CPU      0.28s WALL (     577 calls)
     vloc_psi     :     42.67s CPU     42.69s WALL (     577 calls)
     add_vuspsi   :      0.23s CPU      0.23s WALL (     577 calls)

     General routines
     calbec       :      0.47s CPU      0.47s WALL (     969 calls)
     fft          :     75.35s CPU     75.39s WALL (    2553 calls)
     ffts         :      5.83s CPU      5.83s WALL (     192 calls)
     fftw         :     45.90s CPU     45.92s WALL (    2388 calls)


     PWSCF        :   3m58.08s CPU   4m 0.76s WALL


   This run was terminated on:   4:11: 0  28Feb2022            

=------------------------------------------------------------------------------=
   JOB DONE.
=------------------------------------------------------------------------------=
