
     Program PWSCF v.7.0 starts on 28Feb2022 at  2:53:50 

     This program is part of the open-source Quantum ESPRESSO suite
     for quantum simulation of materials; please cite
         "P. Giannozzi et al., J. Phys.:Condens. Matter 21 395502 (2009);
         "P. Giannozzi et al., J. Phys.:Condens. Matter 29 465901 (2017);
         "P. Giannozzi et al., J. Chem. Phys. 152 154105 (2020);
          URL http://www.quantum-espresso.org", 
     in publications or presentations arising from this work. More details at
     http://www.quantum-espresso.org/quote

     Serial version
     564 MiB available memory on the printing compute node when the environment starts

     Waiting for input...
     Reading input from standard input

     Current dimensions of program PWSCF are:
     Max number of different atomic species (ntypx) = 10
     Max number of k-points (npk) =  40000
     Max angular momentum in pseudopotentials (lmaxx) =  4

     File ./.update deleted, as requested

     File ./.bfgs deleted, as requested

    ============================================================
    |  pseudopotential report for atomic species:  1           |
    |        pseudo potential version   7   3   2              |
    ------------------------------------------------------------
    |  hydrogen            PBE                  exchange-corr  |
    |  z =   1.    zv( 1) =   1.    exfact =   5.00000         |
    |  ifpcor =  0           atomic energy =  -0.91772 Ry      |
    |  index    orbital      occupation    energy              |
    |    1        100           1.00       -0.48               |
    |  rinner =  0.5000                                        |
    |    new generation scheme:                                |
    |    nbeta =  1     kkbeta =  271     rcloc =    0.6000    |
    |    ibeta    l     epsilon   rcut                         |
    |      1       0      -0.48   0.80                         |
    ============================================================

     IMPORTANT: XC functional enforced from input :
     Exchange-correlation= BLYP
                           (   1   3   1   3   0   0   0)
     Any further DFT definition will be discarded
     Please, verify this is what you really want


     G-vector sticks info
     --------------------
     sticks:   dense  smooth     PW     G-vecs:    dense   smooth      PW
     Sum        1433    1433    421                40651    40651    6451

     Using Slab Decomposition



     bravais-lattice index     =            1
     lattice parameter (alat)  =      30.0000  a.u.
     unit-cell volume          =   27000.0000 (a.u.)^3
     number of atoms/cell      =            2
     number of atomic types    =            1
     number of electrons       =         2.00
     number of Kohn-Sham states=            2
     kinetic-energy cutoff     =       5.0000  Ry
     charge density cutoff     =      20.0000  Ry
     scf convergence threshold =      1.0E-08
     mixing beta               =       0.7000
     number of iterations used =            8  plain     mixing
     energy convergence thresh.=      1.0E-04
     force convergence thresh. =      1.0E-03
     Exchange-correlation= BLYP
                           (   1   3   1   3   0   0   0)
     nstep                     =           50


     celldm(1)=  30.000000  celldm(2)=   0.000000  celldm(3)=   0.000000
     celldm(4)=   0.000000  celldm(5)=   0.000000  celldm(6)=   0.000000

     crystal axes: (cart. coord. in units of alat)
               a(1) = (   1.000000   0.000000   0.000000 )  
               a(2) = (   0.000000   1.000000   0.000000 )  
               a(3) = (   0.000000   0.000000   1.000000 )  

     reciprocal axes: (cart. coord. in units 2 pi/alat)
               b(1) = (  1.000000  0.000000  0.000000 )  
               b(2) = (  0.000000  1.000000  0.000000 )  
               b(3) = (  0.000000  0.000000  1.000000 )  


     PseudoPot. # 1 for hy read from file:
     /root/q-e/pseudo/H_US.van
     MD5 check sum: a9a9bfe98ff56cf4de197d71fc46bb44
     Pseudo is Ultrasoft, Zval =  1.0
     Generated by Vanderbilt code, v. 7.3.2
     Using radial grid of  399 points,  1 beta functions with: 
                l(1) =   0
     Q(r) pseudized with  8 coefficients,  rinner =    0.500

     atomic species   valence    mass     pseudopotential
        H              1.00     1.00784     hy( 1.00)

      8 Sym. Ops. (no inversion) found


                                    s                        frac. trans.

      isym =  1     identity                                     

 cryst.   s( 1) = (     1          0          0      )
                  (     0          1          0      )
                  (     0          0          1      )

 cart.    s( 1) = (  1.0000000  0.0000000  0.0000000 )
                  (  0.0000000  1.0000000  0.0000000 )
                  (  0.0000000  0.0000000  1.0000000 )


      isym =  2     180 deg rotation - cart. axis [1,0,0]        

 cryst.   s( 2) = (     1          0          0      )
                  (     0         -1          0      )
                  (     0          0         -1      )

 cart.    s( 2) = (  1.0000000  0.0000000  0.0000000 )
                  (  0.0000000 -1.0000000  0.0000000 )
                  (  0.0000000  0.0000000 -1.0000000 )


      isym =  3      90 deg rotation - cart. axis [-1,0,0]       

 cryst.   s( 3) = (     1          0          0      )
                  (     0          0         -1      )
                  (     0          1          0      )

 cart.    s( 3) = (  1.0000000  0.0000000  0.0000000 )
                  (  0.0000000  0.0000000  1.0000000 )
                  (  0.0000000 -1.0000000  0.0000000 )


      isym =  4      90 deg rotation - cart. axis [1,0,0]        

 cryst.   s( 4) = (     1          0          0      )
                  (     0          0          1      )
                  (     0         -1          0      )

 cart.    s( 4) = (  1.0000000  0.0000000  0.0000000 )
                  (  0.0000000  0.0000000 -1.0000000 )
                  (  0.0000000  1.0000000  0.0000000 )


      isym =  5     inv. 180 deg rotation - cart. axis [0,0,1]   

 cryst.   s( 5) = (     1          0          0      )
                  (     0          1          0      )
                  (     0          0         -1      )

 cart.    s( 5) = (  1.0000000  0.0000000  0.0000000 )
                  (  0.0000000  1.0000000  0.0000000 )
                  (  0.0000000  0.0000000 -1.0000000 )


      isym =  6     inv. 180 deg rotation - cart. axis [0,1,0]   

 cryst.   s( 6) = (     1          0          0      )
                  (     0         -1          0      )
                  (     0          0          1      )

 cart.    s( 6) = (  1.0000000  0.0000000  0.0000000 )
                  (  0.0000000 -1.0000000  0.0000000 )
                  (  0.0000000  0.0000000  1.0000000 )


      isym =  7     inv. 180 deg rotation - cart. axis [0,1,1]   

 cryst.   s( 7) = (     1          0          0      )
                  (     0          0         -1      )
                  (     0         -1          0      )

 cart.    s( 7) = (  1.0000000  0.0000000  0.0000000 )
                  (  0.0000000  0.0000000 -1.0000000 )
                  (  0.0000000 -1.0000000  0.0000000 )


      isym =  8     inv. 180 deg rotation - cart. axis [0,1,-1]  

 cryst.   s( 8) = (     1          0          0      )
                  (     0          0          1      )
                  (     0          1          0      )

 cart.    s( 8) = (  1.0000000  0.0000000  0.0000000 )
                  (  0.0000000  0.0000000  1.0000000 )
                  (  0.0000000  1.0000000  0.0000000 )


     point group C_4v (4mm) 
     there are  5 classes
     the character table:

       E     2C4   C2    2s_v  2s_d 
A_1    1.00  1.00  1.00  1.00  1.00
A_2    1.00  1.00  1.00 -1.00 -1.00
B_1    1.00 -1.00  1.00  1.00 -1.00
B_2    1.00 -1.00  1.00 -1.00  1.00
E      2.00  0.00 -2.00  0.00  0.00

     the symmetry operations in each class and the name of the first element:

     E        1
          identity                                               
     2C4      3    4
           90 deg rotation - cart. axis [-1,0,0]                 
     C2       2
          180 deg rotation - cart. axis [1,0,0]                  
     2s_v     5    6
          inv. 180 deg rotation - cart. axis [0,0,1]             
     2s_d     7    8
          inv. 180 deg rotation - cart. axis [0,1,1]             

   Cartesian axes

     site n.     atom                  positions (alat units)
         1           H   tau(   1) = (   0.0000000   0.0000000   0.0000000  )
         2           H   tau(   2) = (   0.0453534   0.0000000   0.0000000  )

   Crystallographic axes

     site n.     atom                  positions (cryst. coord.)
         1           H   tau(   1) = (  0.0000000  0.0000000  0.0000000  )
         2           H   tau(   2) = (  0.0453534  0.0000000  0.0000000  )

     number of k points=     1
                       cart. coord. in units 2pi/alat
        k(    1) = (  -0.5000000  -0.5000000  -0.5000000), wk =   2.0000000

                       cryst. coord.
        k(    1) = (  -0.5000000  -0.5000000  -0.5000000), wk =   2.0000000

     Dense  grid:    40651 G-vectors     FFT dimensions: (  45,  45,  45)

     Dynamical RAM for                 wfc:       0.16 MB

     Dynamical RAM for     wfc (w. buffer):       0.16 MB

     Dynamical RAM for           str. fact:       0.62 MB

     Dynamical RAM for           local pot:       0.00 MB

     Dynamical RAM for          nlocal pot:       0.16 MB

     Dynamical RAM for                qrad:       0.00 MB

     Dynamical RAM for          rho,v,vnew:       3.95 MB

     Dynamical RAM for               rhoin:       1.32 MB

     Dynamical RAM for            rho*nmix:       9.92 MB

     Dynamical RAM for           G-vectors:       2.64 MB

     Dynamical RAM for          h,s,v(r/c):       0.00 MB

     Dynamical RAM for          <psi|beta>:       0.00 MB

     Dynamical RAM for                 psi:       0.31 MB

     Dynamical RAM for                hpsi:       0.31 MB

     Dynamical RAM for                spsi:       0.31 MB

     Dynamical RAM for      wfcinit/wfcrot:       0.31 MB

     Dynamical RAM for           addusdens:       3.72 MB

     Dynamical RAM for          addusforce:       5.27 MB

     Estimated static dynamical RAM per process >      13.55 MB

     Estimated max dynamical RAM per process >      28.75 MB

     Initial potential from superposition of free atoms

     starting charge       2.0000, renormalised to       2.0000

     negative rho (up, down):  5.077E-01 0.000E+00
     Starting wfcs are    2 randomized atomic wfcs

     total cpu time spent up to now is        0.1 secs

     Self-consistent Calculation

     iteration #  1     ecut=     5.00 Ry     beta= 0.70
     Davidson diagonalization with overlap

---- Real-time Memory Report at c_bands before calling an iterative solver
            40 MiB given to the printing process from OS
             0 MiB allocation reported by mallinfo(arena+hblkhd)
           544 MiB available memory on the node where the printing process lives
------------------
     ethr =  1.00E-02,  avg # of iterations =  5.0

     negative rho (up, down):  4.303E-01 0.000E+00

     total cpu time spent up to now is        0.2 secs

     total energy              =      -2.01367211 Ry
     estimated scf accuracy    <       0.03748934 Ry

     iteration #  2     ecut=     5.00 Ry     beta= 0.70
     Davidson diagonalization with overlap

---- Real-time Memory Report at c_bands before calling an iterative solver
            46 MiB given to the printing process from OS
             0 MiB allocation reported by mallinfo(arena+hblkhd)
           531 MiB available memory on the node where the printing process lives
------------------
     ethr =  1.87E-03,  avg # of iterations =  4.0

     negative rho (up, down):  3.976E-01 0.000E+00

     total cpu time spent up to now is        0.2 secs

     total energy              =      -2.02613081 Ry
     estimated scf accuracy    <       0.00221214 Ry

     iteration #  3     ecut=     5.00 Ry     beta= 0.70
     Davidson diagonalization with overlap

---- Real-time Memory Report at c_bands before calling an iterative solver
            47 MiB given to the printing process from OS
             0 MiB allocation reported by mallinfo(arena+hblkhd)
           530 MiB available memory on the node where the printing process lives
------------------
     ethr =  1.11E-04,  avg # of iterations =  6.0

     negative rho (up, down):  3.907E-01 0.000E+00

     total cpu time spent up to now is        0.3 secs

     total energy              =      -2.02851144 Ry
     estimated scf accuracy    <       0.00033758 Ry

     iteration #  4     ecut=     5.00 Ry     beta= 0.70
     Davidson diagonalization with overlap

---- Real-time Memory Report at c_bands before calling an iterative solver
            48 MiB given to the printing process from OS
             0 MiB allocation reported by mallinfo(arena+hblkhd)
           529 MiB available memory on the node where the printing process lives
------------------
     ethr =  1.69E-05,  avg # of iterations =  5.0

     negative rho (up, down):  3.869E-01 0.000E+00

     total cpu time spent up to now is        0.4 secs

     total energy              =      -2.03050204 Ry
     estimated scf accuracy    <       0.00000675 Ry

     iteration #  5     ecut=     5.00 Ry     beta= 0.70
     Davidson diagonalization with overlap

---- Real-time Memory Report at c_bands before calling an iterative solver
            50 MiB given to the printing process from OS
             0 MiB allocation reported by mallinfo(arena+hblkhd)
           528 MiB available memory on the node where the printing process lives
------------------
     ethr =  3.37E-07,  avg # of iterations =  3.0

     negative rho (up, down):  3.868E-01 0.000E+00

     total cpu time spent up to now is        0.5 secs

     total energy              =      -2.03054856 Ry
     estimated scf accuracy    <       0.00000105 Ry

     iteration #  6     ecut=     5.00 Ry     beta= 0.70
     Davidson diagonalization with overlap

---- Real-time Memory Report at c_bands before calling an iterative solver
            51 MiB given to the printing process from OS
             0 MiB allocation reported by mallinfo(arena+hblkhd)
           526 MiB available memory on the node where the printing process lives
------------------
     ethr =  5.25E-08,  avg # of iterations =  4.0

     negative rho (up, down):  3.864E-01 0.000E+00

     total cpu time spent up to now is        0.6 secs

     total energy              =      -2.03052904 Ry
     estimated scf accuracy    <       0.00000557 Ry

     iteration #  7     ecut=     5.00 Ry     beta= 0.70
     Davidson diagonalization with overlap

---- Real-time Memory Report at c_bands before calling an iterative solver
            52 MiB given to the printing process from OS
             0 MiB allocation reported by mallinfo(arena+hblkhd)
           525 MiB available memory on the node where the printing process lives
------------------
     ethr =  5.25E-08,  avg # of iterations =  4.0

     negative rho (up, down):  3.865E-01 0.000E+00

     total cpu time spent up to now is        0.6 secs

     total energy              =      -2.03074159 Ry
     estimated scf accuracy    <       0.00000172 Ry

     iteration #  8     ecut=     5.00 Ry     beta= 0.70
     Davidson diagonalization with overlap

---- Real-time Memory Report at c_bands before calling an iterative solver
            53 MiB given to the printing process from OS
             0 MiB allocation reported by mallinfo(arena+hblkhd)
           524 MiB available memory on the node where the printing process lives
------------------
     ethr =  5.25E-08,  avg # of iterations =  3.0

     negative rho (up, down):  3.865E-01 0.000E+00

     total cpu time spent up to now is        0.7 secs

     total energy              =      -2.03077131 Ry
     estimated scf accuracy    <       0.00000206 Ry

     iteration #  9     ecut=     5.00 Ry     beta= 0.70
     Davidson diagonalization with overlap

---- Real-time Memory Report at c_bands before calling an iterative solver
            55 MiB given to the printing process from OS
             0 MiB allocation reported by mallinfo(arena+hblkhd)
           523 MiB available memory on the node where the printing process lives
------------------
     ethr =  5.25E-08,  avg # of iterations =  2.0

     negative rho (up, down):  3.870E-01 0.000E+00

     total cpu time spent up to now is        0.8 secs

     total energy              =      -2.03069851 Ry
     estimated scf accuracy    <       0.00000187 Ry

     iteration # 10     ecut=     5.00 Ry     beta= 0.70
     Davidson diagonalization with overlap

---- Real-time Memory Report at c_bands before calling an iterative solver
            56 MiB given to the printing process from OS
             0 MiB allocation reported by mallinfo(arena+hblkhd)
           521 MiB available memory on the node where the printing process lives
------------------
     ethr =  5.25E-08,  avg # of iterations =  3.0

     negative rho (up, down):  3.875E-01 0.000E+00

     total cpu time spent up to now is        0.8 secs

     total energy              =      -2.03063899 Ry
     estimated scf accuracy    <       0.00000856 Ry

     iteration # 11     ecut=     5.00 Ry     beta= 0.70
     Davidson diagonalization with overlap

---- Real-time Memory Report at c_bands before calling an iterative solver
            56 MiB given to the printing process from OS
             0 MiB allocation reported by mallinfo(arena+hblkhd)
           521 MiB available memory on the node where the printing process lives
------------------
     ethr =  5.25E-08,  avg # of iterations =  3.0

     negative rho (up, down):  3.887E-01 0.000E+00

     total cpu time spent up to now is        0.9 secs

     total energy              =      -2.03045569 Ry
     estimated scf accuracy    <       0.00001632 Ry

     iteration # 12     ecut=     5.00 Ry     beta= 0.70
     Davidson diagonalization with overlap

---- Real-time Memory Report at c_bands before calling an iterative solver
            56 MiB given to the printing process from OS
             0 MiB allocation reported by mallinfo(arena+hblkhd)
           521 MiB available memory on the node where the printing process lives
------------------
     ethr =  5.25E-08,  avg # of iterations =  3.0

     negative rho (up, down):  3.840E-01 0.000E+00

     total cpu time spent up to now is        1.0 secs

     total energy              =      -2.03126804 Ry
     estimated scf accuracy    <       0.00003312 Ry

     iteration # 13     ecut=     5.00 Ry     beta= 0.70
     Davidson diagonalization with overlap

---- Real-time Memory Report at c_bands before calling an iterative solver
            56 MiB given to the printing process from OS
             0 MiB allocation reported by mallinfo(arena+hblkhd)
           521 MiB available memory on the node where the printing process lives
------------------
     ethr =  5.25E-08,  avg # of iterations =  3.0

     negative rho (up, down):  3.844E-01 0.000E+00

     total cpu time spent up to now is        1.1 secs

     total energy              =      -2.03122837 Ry
     estimated scf accuracy    <       0.00000811 Ry

     iteration # 14     ecut=     5.00 Ry     beta= 0.70
     Davidson diagonalization with overlap

---- Real-time Memory Report at c_bands before calling an iterative solver
            56 MiB given to the printing process from OS
             0 MiB allocation reported by mallinfo(arena+hblkhd)
           521 MiB available memory on the node where the printing process lives
------------------
     ethr =  5.25E-08,  avg # of iterations =  3.0

     negative rho (up, down):  3.860E-01 0.000E+00

     total cpu time spent up to now is        1.1 secs

     total energy              =      -2.03075831 Ry
     estimated scf accuracy    <       0.00000489 Ry

     iteration # 15     ecut=     5.00 Ry     beta= 0.70
     Davidson diagonalization with overlap

---- Real-time Memory Report at c_bands before calling an iterative solver
            56 MiB given to the printing process from OS
             0 MiB allocation reported by mallinfo(arena+hblkhd)
           521 MiB available memory on the node where the printing process lives
------------------
     ethr =  5.25E-08,  avg # of iterations =  3.0

     negative rho (up, down):  3.879E-01 0.000E+00

     total cpu time spent up to now is        1.2 secs

     total energy              =      -2.03050400 Ry
     estimated scf accuracy    <       0.00000123 Ry

     iteration # 16     ecut=     5.00 Ry     beta= 0.70
     Davidson diagonalization with overlap

---- Real-time Memory Report at c_bands before calling an iterative solver
            56 MiB given to the printing process from OS
             0 MiB allocation reported by mallinfo(arena+hblkhd)
           521 MiB available memory on the node where the printing process lives
------------------
     ethr =  5.25E-08,  avg # of iterations =  3.0

     negative rho (up, down):  3.843E-01 0.000E+00

     total cpu time spent up to now is        1.3 secs

     total energy              =      -2.03117419 Ry
     estimated scf accuracy    <       0.00001131 Ry

     iteration # 17     ecut=     5.00 Ry     beta= 0.70
     Davidson diagonalization with overlap

---- Real-time Memory Report at c_bands before calling an iterative solver
            56 MiB given to the printing process from OS
             0 MiB allocation reported by mallinfo(arena+hblkhd)
           521 MiB available memory on the node where the printing process lives
------------------
     ethr =  5.25E-08,  avg # of iterations =  3.0

     negative rho (up, down):  3.825E-01 0.000E+00

     total cpu time spent up to now is        1.3 secs

     total energy              =      -2.03230732 Ry
     estimated scf accuracy    <       0.00001248 Ry

     iteration # 18     ecut=     5.00 Ry     beta= 0.70
     Davidson diagonalization with overlap

---- Real-time Memory Report at c_bands before calling an iterative solver
            56 MiB given to the printing process from OS
             0 MiB allocation reported by mallinfo(arena+hblkhd)
           521 MiB available memory on the node where the printing process lives
------------------
     ethr =  5.25E-08,  avg # of iterations =  4.0

     negative rho (up, down):  3.846E-01 0.000E+00

     total cpu time spent up to now is        1.4 secs

     total energy              =      -2.03103446 Ry
     estimated scf accuracy    <       0.00007768 Ry

     iteration # 19     ecut=     5.00 Ry     beta= 0.70
     Davidson diagonalization with overlap

---- Real-time Memory Report at c_bands before calling an iterative solver
            56 MiB given to the printing process from OS
             0 MiB allocation reported by mallinfo(arena+hblkhd)
           521 MiB available memory on the node where the printing process lives
------------------
     ethr =  5.25E-08,  avg # of iterations =  4.0

     negative rho (up, down):  3.851E-01 0.000E+00

     total cpu time spent up to now is        1.5 secs

     total energy              =      -2.03108074 Ry
     estimated scf accuracy    <       0.00000436 Ry

     iteration # 20     ecut=     5.00 Ry     beta= 0.70
     Davidson diagonalization with overlap

---- Real-time Memory Report at c_bands before calling an iterative solver
            56 MiB given to the printing process from OS
             0 MiB allocation reported by mallinfo(arena+hblkhd)
           521 MiB available memory on the node where the printing process lives
------------------
     ethr =  5.25E-08,  avg # of iterations =  2.0

     negative rho (up, down):  3.859E-01 0.000E+00

     total cpu time spent up to now is        1.6 secs

     total energy              =      -2.03087030 Ry
     estimated scf accuracy    <       0.00000224 Ry

     iteration # 21     ecut=     5.00 Ry     beta= 0.70
     Davidson diagonalization with overlap

---- Real-time Memory Report at c_bands before calling an iterative solver
            56 MiB given to the printing process from OS
             0 MiB allocation reported by mallinfo(arena+hblkhd)
           521 MiB available memory on the node where the printing process lives
------------------
     ethr =  5.25E-08,  avg # of iterations =  3.0

     negative rho (up, down):  3.853E-01 0.000E+00

     total cpu time spent up to now is        1.6 secs

     total energy              =      -2.03100407 Ry
     estimated scf accuracy    <       0.00000181 Ry

     iteration # 22     ecut=     5.00 Ry     beta= 0.70
     Davidson diagonalization with overlap

---- Real-time Memory Report at c_bands before calling an iterative solver
            56 MiB given to the printing process from OS
             0 MiB allocation reported by mallinfo(arena+hblkhd)
           521 MiB available memory on the node where the printing process lives
------------------
     ethr =  5.25E-08,  avg # of iterations =  3.0

     negative rho (up, down):  3.849E-01 0.000E+00

     total cpu time spent up to now is        1.7 secs

     total energy              =      -2.03110790 Ry
     estimated scf accuracy    <       0.00000187 Ry

     iteration # 23     ecut=     5.00 Ry     beta= 0.70
     Davidson diagonalization with overlap

---- Real-time Memory Report at c_bands before calling an iterative solver
            56 MiB given to the printing process from OS
             0 MiB allocation reported by mallinfo(arena+hblkhd)
           521 MiB available memory on the node where the printing process lives
------------------
     ethr =  5.25E-08,  avg # of iterations =  3.0

     negative rho (up, down):  3.854E-01 0.000E+00

     total cpu time spent up to now is        1.8 secs

     total energy              =      -2.03091529 Ry
     estimated scf accuracy    <       0.00000304 Ry

     iteration # 24     ecut=     5.00 Ry     beta= 0.70
     Davidson diagonalization with overlap

---- Real-time Memory Report at c_bands before calling an iterative solver
            56 MiB given to the printing process from OS
             0 MiB allocation reported by mallinfo(arena+hblkhd)
           521 MiB available memory on the node where the printing process lives
------------------
     ethr =  5.25E-08,  avg # of iterations =  3.0

     negative rho (up, down):  3.846E-01 0.000E+00

     total cpu time spent up to now is        1.9 secs

     total energy              =      -2.03118604 Ry
     estimated scf accuracy    <       0.00000424 Ry

     iteration # 25     ecut=     5.00 Ry     beta= 0.70
     Davidson diagonalization with overlap

---- Real-time Memory Report at c_bands before calling an iterative solver
            56 MiB given to the printing process from OS
             0 MiB allocation reported by mallinfo(arena+hblkhd)
           521 MiB available memory on the node where the printing process lives
------------------
     ethr =  5.25E-08,  avg # of iterations =  4.0

     negative rho (up, down):  3.842E-01 0.000E+00

     total cpu time spent up to now is        1.9 secs

     total energy              =      -2.03129441 Ry
     estimated scf accuracy    <       0.00000149 Ry

     iteration # 26     ecut=     5.00 Ry     beta= 0.70
     Davidson diagonalization with overlap

---- Real-time Memory Report at c_bands before calling an iterative solver
            56 MiB given to the printing process from OS
             0 MiB allocation reported by mallinfo(arena+hblkhd)
           521 MiB available memory on the node where the printing process lives
------------------
     ethr =  5.25E-08,  avg # of iterations =  2.0

     negative rho (up, down):  3.845E-01 0.000E+00

     total cpu time spent up to now is        2.0 secs

     total energy              =      -2.03123043 Ry
     estimated scf accuracy    <       0.00000327 Ry

     iteration # 27     ecut=     5.00 Ry     beta= 0.70
     Davidson diagonalization with overlap

---- Real-time Memory Report at c_bands before calling an iterative solver
            56 MiB given to the printing process from OS
             0 MiB allocation reported by mallinfo(arena+hblkhd)
           521 MiB available memory on the node where the printing process lives
------------------
     ethr =  5.25E-08,  avg # of iterations =  2.0

     negative rho (up, down):  3.849E-01 0.000E+00

     total cpu time spent up to now is        2.1 secs

     total energy              =      -2.03112742 Ry
     estimated scf accuracy    <       0.00000220 Ry

     iteration # 28     ecut=     5.00 Ry     beta= 0.70
     Davidson diagonalization with overlap

---- Real-time Memory Report at c_bands before calling an iterative solver
            56 MiB given to the printing process from OS
             0 MiB allocation reported by mallinfo(arena+hblkhd)
           521 MiB available memory on the node where the printing process lives
------------------
     ethr =  5.25E-08,  avg # of iterations =  3.0

     negative rho (up, down):  3.832E-01 0.000E+00

     total cpu time spent up to now is        2.1 secs

     total energy              =      -2.03193886 Ry
     estimated scf accuracy    <       0.00000458 Ry

     iteration # 29     ecut=     5.00 Ry     beta= 0.70
     Davidson diagonalization with overlap

---- Real-time Memory Report at c_bands before calling an iterative solver
            56 MiB given to the printing process from OS
             0 MiB allocation reported by mallinfo(arena+hblkhd)
           521 MiB available memory on the node where the printing process lives
------------------
     ethr =  5.25E-08,  avg # of iterations =  4.0

     negative rho (up, down):  3.835E-01 0.000E+00

     total cpu time spent up to now is        2.2 secs

     total energy              =      -2.03169146 Ry
     estimated scf accuracy    <       0.00006136 Ry

     iteration # 30     ecut=     5.00 Ry     beta= 0.70
     Davidson diagonalization with overlap

---- Real-time Memory Report at c_bands before calling an iterative solver
            56 MiB given to the printing process from OS
             0 MiB allocation reported by mallinfo(arena+hblkhd)
           521 MiB available memory on the node where the printing process lives
------------------
     ethr =  5.25E-08,  avg # of iterations =  4.0

     negative rho (up, down):  3.883E-01 0.000E+00

     total cpu time spent up to now is        2.3 secs

     total energy              =      -2.03005340 Ry
     estimated scf accuracy    <       0.00001022 Ry

     iteration # 31     ecut=     5.00 Ry     beta= 0.70
     Davidson diagonalization with overlap

---- Real-time Memory Report at c_bands before calling an iterative solver
            56 MiB given to the printing process from OS
             0 MiB allocation reported by mallinfo(arena+hblkhd)
           521 MiB available memory on the node where the printing process lives
------------------
     ethr =  5.25E-08,  avg # of iterations =  4.0

     negative rho (up, down):  3.838E-01 0.000E+00

     total cpu time spent up to now is        2.4 secs

     total energy              =      -2.03120286 Ry
     estimated scf accuracy    <       0.00001440 Ry

     iteration # 32     ecut=     5.00 Ry     beta= 0.70
     Davidson diagonalization with overlap

---- Real-time Memory Report at c_bands before calling an iterative solver
            56 MiB given to the printing process from OS
             0 MiB allocation reported by mallinfo(arena+hblkhd)
           521 MiB available memory on the node where the printing process lives
------------------
     ethr =  5.25E-08,  avg # of iterations =  4.0

     negative rho (up, down):  3.822E-01 0.000E+00

     total cpu time spent up to now is        2.5 secs

     total energy              =      -2.03124712 Ry
     estimated scf accuracy    <       0.00000179 Ry

     iteration # 33     ecut=     5.00 Ry     beta= 0.70
     Davidson diagonalization with overlap

---- Real-time Memory Report at c_bands before calling an iterative solver
            56 MiB given to the printing process from OS
             0 MiB allocation reported by mallinfo(arena+hblkhd)
           521 MiB available memory on the node where the printing process lives
------------------
     ethr =  5.25E-08,  avg # of iterations =  4.0

     negative rho (up, down):  3.887E-01 0.000E+00

     total cpu time spent up to now is        2.5 secs

     total energy              =      -2.02978804 Ry
     estimated scf accuracy    <       0.00001889 Ry

     iteration # 34     ecut=     5.00 Ry     beta= 0.70
     Davidson diagonalization with overlap

---- Real-time Memory Report at c_bands before calling an iterative solver
            56 MiB given to the printing process from OS
             0 MiB allocation reported by mallinfo(arena+hblkhd)
           521 MiB available memory on the node where the printing process lives
------------------
     ethr =  5.25E-08,  avg # of iterations =  4.0

     negative rho (up, down):  3.875E-01 0.000E+00

     total cpu time spent up to now is        2.6 secs

     total energy              =      -2.03025725 Ry
     estimated scf accuracy    <       0.00001562 Ry

     iteration # 35     ecut=     5.00 Ry     beta= 0.70
     Davidson diagonalization with overlap

---- Real-time Memory Report at c_bands before calling an iterative solver
            56 MiB given to the printing process from OS
             0 MiB allocation reported by mallinfo(arena+hblkhd)
           521 MiB available memory on the node where the printing process lives
------------------
     ethr =  5.25E-08,  avg # of iterations =  5.0

     negative rho (up, down):  3.847E-01 0.000E+00

     total cpu time spent up to now is        2.7 secs

     total energy              =      -2.02942405 Ry
     estimated scf accuracy    <       0.00033878 Ry

     iteration # 36     ecut=     5.00 Ry     beta= 0.70
     Davidson diagonalization with overlap

---- Real-time Memory Report at c_bands before calling an iterative solver
            56 MiB given to the printing process from OS
             0 MiB allocation reported by mallinfo(arena+hblkhd)
           521 MiB available memory on the node where the printing process lives
------------------
     ethr =  5.25E-08,  avg # of iterations =  5.0

     negative rho (up, down):  3.855E-01 0.000E+00

     total cpu time spent up to now is        2.8 secs

     total energy              =      -2.03097126 Ry
     estimated scf accuracy    <       0.00000360 Ry

     iteration # 37     ecut=     5.00 Ry     beta= 0.70
     Davidson diagonalization with overlap

---- Real-time Memory Report at c_bands before calling an iterative solver
            56 MiB given to the printing process from OS
             0 MiB allocation reported by mallinfo(arena+hblkhd)
           521 MiB available memory on the node where the printing process lives
------------------
     ethr =  5.25E-08,  avg # of iterations =  3.0

     negative rho (up, down):  3.853E-01 0.000E+00

     total cpu time spent up to now is        2.8 secs

     total energy              =      -2.03099738 Ry
     estimated scf accuracy    <       0.00000131 Ry

     iteration # 38     ecut=     5.00 Ry     beta= 0.70
     Davidson diagonalization with overlap

---- Real-time Memory Report at c_bands before calling an iterative solver
            56 MiB given to the printing process from OS
             0 MiB allocation reported by mallinfo(arena+hblkhd)
           521 MiB available memory on the node where the printing process lives
------------------
     ethr =  5.25E-08,  avg # of iterations =  2.0

     negative rho (up, down):  3.854E-01 0.000E+00

     total cpu time spent up to now is        2.9 secs

     total energy              =      -2.03095810 Ry
     estimated scf accuracy    <       0.00000147 Ry

     iteration # 39     ecut=     5.00 Ry     beta= 0.70
     Davidson diagonalization with overlap

---- Real-time Memory Report at c_bands before calling an iterative solver
            56 MiB given to the printing process from OS
             0 MiB allocation reported by mallinfo(arena+hblkhd)
           521 MiB available memory on the node where the printing process lives
------------------
     ethr =  5.25E-08,  avg # of iterations =  2.0

     negative rho (up, down):  3.855E-01 0.000E+00

     total cpu time spent up to now is        3.0 secs

     total energy              =      -2.03097657 Ry
     estimated scf accuracy    <       0.00000137 Ry

     iteration # 40     ecut=     5.00 Ry     beta= 0.70
     Davidson diagonalization with overlap

---- Real-time Memory Report at c_bands before calling an iterative solver
            56 MiB given to the printing process from OS
             0 MiB allocation reported by mallinfo(arena+hblkhd)
           521 MiB available memory on the node where the printing process lives
------------------
     ethr =  5.25E-08,  avg # of iterations =  2.0

     negative rho (up, down):  3.855E-01 0.000E+00

     total cpu time spent up to now is        3.1 secs

     total energy              =      -2.03093727 Ry
     estimated scf accuracy    <       0.00000137 Ry

     iteration # 41     ecut=     5.00 Ry     beta= 0.70
     Davidson diagonalization with overlap

---- Real-time Memory Report at c_bands before calling an iterative solver
            56 MiB given to the printing process from OS
             0 MiB allocation reported by mallinfo(arena+hblkhd)
           521 MiB available memory on the node where the printing process lives
------------------
     ethr =  5.25E-08,  avg # of iterations =  2.0

     negative rho (up, down):  3.857E-01 0.000E+00

     total cpu time spent up to now is        3.1 secs

     total energy              =      -2.03092955 Ry
     estimated scf accuracy    <       0.00000139 Ry

     iteration # 42     ecut=     5.00 Ry     beta= 0.70
     Davidson diagonalization with overlap

---- Real-time Memory Report at c_bands before calling an iterative solver
            56 MiB given to the printing process from OS
             0 MiB allocation reported by mallinfo(arena+hblkhd)
           521 MiB available memory on the node where the printing process lives
------------------
     ethr =  5.25E-08,  avg # of iterations =  2.0

     negative rho (up, down):  3.859E-01 0.000E+00

     total cpu time spent up to now is        3.2 secs

     total energy              =      -2.03084140 Ry
     estimated scf accuracy    <       0.00000154 Ry

     iteration # 43     ecut=     5.00 Ry     beta= 0.70
     Davidson diagonalization with overlap

---- Real-time Memory Report at c_bands before calling an iterative solver
            56 MiB given to the printing process from OS
             0 MiB allocation reported by mallinfo(arena+hblkhd)
           521 MiB available memory on the node where the printing process lives
------------------
     ethr =  5.25E-08,  avg # of iterations =  2.0

     negative rho (up, down):  3.861E-01 0.000E+00

     total cpu time spent up to now is        3.3 secs

     total energy              =      -2.03081095 Ry
     estimated scf accuracy    <       0.00000208 Ry

     iteration # 44     ecut=     5.00 Ry     beta= 0.70
     Davidson diagonalization with overlap

---- Real-time Memory Report at c_bands before calling an iterative solver
            56 MiB given to the printing process from OS
             0 MiB allocation reported by mallinfo(arena+hblkhd)
           521 MiB available memory on the node where the printing process lives
------------------
     ethr =  5.25E-08,  avg # of iterations =  2.0

     negative rho (up, down):  3.843E-01 0.000E+00

     total cpu time spent up to now is        3.3 secs

     total energy              =      -2.03119531 Ry
     estimated scf accuracy    <       0.00000282 Ry

     iteration # 45     ecut=     5.00 Ry     beta= 0.70
     Davidson diagonalization with overlap

---- Real-time Memory Report at c_bands before calling an iterative solver
            56 MiB given to the printing process from OS
             0 MiB allocation reported by mallinfo(arena+hblkhd)
           521 MiB available memory on the node where the printing process lives
------------------
     ethr =  5.25E-08,  avg # of iterations =  3.0

     negative rho (up, down):  3.845E-01 0.000E+00

     total cpu time spent up to now is        3.4 secs

     total energy              =      -2.03120382 Ry
     estimated scf accuracy    <       0.00000630 Ry

     iteration # 46     ecut=     5.00 Ry     beta= 0.70
     Davidson diagonalization with overlap

---- Real-time Memory Report at c_bands before calling an iterative solver
            56 MiB given to the printing process from OS
             0 MiB allocation reported by mallinfo(arena+hblkhd)
           521 MiB available memory on the node where the printing process lives
------------------
     ethr =  5.25E-08,  avg # of iterations =  2.0

     negative rho (up, down):  3.847E-01 0.000E+00

     total cpu time spent up to now is        3.5 secs

     total energy              =      -2.03113777 Ry
     estimated scf accuracy    <       0.00000485 Ry

     iteration # 47     ecut=     5.00 Ry     beta= 0.70
     Davidson diagonalization with overlap

---- Real-time Memory Report at c_bands before calling an iterative solver
            56 MiB given to the printing process from OS
             0 MiB allocation reported by mallinfo(arena+hblkhd)
           521 MiB available memory on the node where the printing process lives
------------------
     ethr =  5.25E-08,  avg # of iterations =  2.0

     negative rho (up, down):  3.840E-01 0.000E+00

     total cpu time spent up to now is        3.5 secs

     total energy              =      -2.03135035 Ry
     estimated scf accuracy    <       0.00000360 Ry

     iteration # 48     ecut=     5.00 Ry     beta= 0.70
     Davidson diagonalization with overlap

---- Real-time Memory Report at c_bands before calling an iterative solver
            56 MiB given to the printing process from OS
             0 MiB allocation reported by mallinfo(arena+hblkhd)
           521 MiB available memory on the node where the printing process lives
------------------
     ethr =  5.25E-08,  avg # of iterations =  3.0

     negative rho (up, down):  3.837E-01 0.000E+00

     total cpu time spent up to now is        3.6 secs

     total energy              =      -2.03147589 Ry
     estimated scf accuracy    <       0.00001159 Ry

     iteration # 49     ecut=     5.00 Ry     beta= 0.70
     Davidson diagonalization with overlap

---- Real-time Memory Report at c_bands before calling an iterative solver
            56 MiB given to the printing process from OS
             0 MiB allocation reported by mallinfo(arena+hblkhd)
           521 MiB available memory on the node where the printing process lives
------------------
     ethr =  5.25E-08,  avg # of iterations =  2.0

     negative rho (up, down):  3.843E-01 0.000E+00

     total cpu time spent up to now is        3.7 secs

     total energy              =      -2.03124890 Ry
     estimated scf accuracy    <       0.00001717 Ry

     iteration # 50     ecut=     5.00 Ry     beta= 0.70
     Davidson diagonalization with overlap

---- Real-time Memory Report at c_bands before calling an iterative solver
            56 MiB given to the printing process from OS
             0 MiB allocation reported by mallinfo(arena+hblkhd)
           521 MiB available memory on the node where the printing process lives
------------------
     ethr =  5.25E-08,  avg # of iterations =  3.0

     negative rho (up, down):  3.837E-01 0.000E+00

     total cpu time spent up to now is        3.8 secs

     total energy              =      -2.03145469 Ry
     estimated scf accuracy    <       0.00000723 Ry

     iteration # 51     ecut=     5.00 Ry     beta= 0.70
     Davidson diagonalization with overlap

---- Real-time Memory Report at c_bands before calling an iterative solver
            56 MiB given to the printing process from OS
             0 MiB allocation reported by mallinfo(arena+hblkhd)
           521 MiB available memory on the node where the printing process lives
------------------
     ethr =  5.25E-08,  avg # of iterations =  2.0

     negative rho (up, down):  3.838E-01 0.000E+00

     total cpu time spent up to now is        3.8 secs

     total energy              =      -2.03141782 Ry
     estimated scf accuracy    <       0.00001441 Ry

     iteration # 52     ecut=     5.00 Ry     beta= 0.70
     Davidson diagonalization with overlap

---- Real-time Memory Report at c_bands before calling an iterative solver
            56 MiB given to the printing process from OS
             0 MiB allocation reported by mallinfo(arena+hblkhd)
           521 MiB available memory on the node where the printing process lives
------------------
     ethr =  5.25E-08,  avg # of iterations =  2.0

     negative rho (up, down):  3.843E-01 0.000E+00

     total cpu time spent up to now is        3.9 secs

     total energy              =      -2.03126651 Ry
     estimated scf accuracy    <       0.00001273 Ry

     iteration # 53     ecut=     5.00 Ry     beta= 0.70
     Davidson diagonalization with overlap

---- Real-time Memory Report at c_bands before calling an iterative solver
            56 MiB given to the printing process from OS
             0 MiB allocation reported by mallinfo(arena+hblkhd)
           521 MiB available memory on the node where the printing process lives
------------------
     ethr =  5.25E-08,  avg # of iterations =  2.0

     negative rho (up, down):  3.854E-01 0.000E+00

     total cpu time spent up to now is        4.0 secs

     total energy              =      -2.03094553 Ry
     estimated scf accuracy    <       0.00000720 Ry

     iteration # 54     ecut=     5.00 Ry     beta= 0.70
     Davidson diagonalization with overlap

---- Real-time Memory Report at c_bands before calling an iterative solver
            56 MiB given to the printing process from OS
             0 MiB allocation reported by mallinfo(arena+hblkhd)
           521 MiB available memory on the node where the printing process lives
------------------
     ethr =  5.25E-08,  avg # of iterations =  3.0

     negative rho (up, down):  3.850E-01 0.000E+00

     total cpu time spent up to now is        4.0 secs

     total energy              =      -2.03110533 Ry
     estimated scf accuracy    <       0.00000249 Ry

     iteration # 55     ecut=     5.00 Ry     beta= 0.70
     Davidson diagonalization with overlap

---- Real-time Memory Report at c_bands before calling an iterative solver
            56 MiB given to the printing process from OS
             0 MiB allocation reported by mallinfo(arena+hblkhd)
           521 MiB available memory on the node where the printing process lives
------------------
     ethr =  5.25E-08,  avg # of iterations =  3.0

     negative rho (up, down):  3.853E-01 0.000E+00

     total cpu time spent up to now is        4.1 secs

     total energy              =      -2.03101824 Ry
     estimated scf accuracy    <       0.00000224 Ry

     iteration # 56     ecut=     5.00 Ry     beta= 0.70
     Davidson diagonalization with overlap

---- Real-time Memory Report at c_bands before calling an iterative solver
            56 MiB given to the printing process from OS
             0 MiB allocation reported by mallinfo(arena+hblkhd)
           521 MiB available memory on the node where the printing process lives
------------------
     ethr =  5.25E-08,  avg # of iterations =  2.0

     negative rho (up, down):  3.853E-01 0.000E+00

     total cpu time spent up to now is        4.2 secs

     total energy              =      -2.03101982 Ry
     estimated scf accuracy    <       0.00000204 Ry

     iteration # 57     ecut=     5.00 Ry     beta= 0.70
     Davidson diagonalization with overlap

---- Real-time Memory Report at c_bands before calling an iterative solver
            56 MiB given to the printing process from OS
             0 MiB allocation reported by mallinfo(arena+hblkhd)
           521 MiB available memory on the node where the printing process lives
------------------
     ethr =  5.25E-08,  avg # of iterations =  2.0

     negative rho (up, down):  3.854E-01 0.000E+00

     total cpu time spent up to now is        4.3 secs

     total energy              =      -2.03099924 Ry
     estimated scf accuracy    <       0.00000242 Ry

     iteration # 58     ecut=     5.00 Ry     beta= 0.70
     Davidson diagonalization with overlap

---- Real-time Memory Report at c_bands before calling an iterative solver
            56 MiB given to the printing process from OS
             0 MiB allocation reported by mallinfo(arena+hblkhd)
           521 MiB available memory on the node where the printing process lives
------------------
     ethr =  5.25E-08,  avg # of iterations =  2.0

     negative rho (up, down):  3.861E-01 0.000E+00

     total cpu time spent up to now is        4.3 secs

     total energy              =      -2.03079610 Ry
     estimated scf accuracy    <       0.00000270 Ry

     iteration # 59     ecut=     5.00 Ry     beta= 0.70
     Davidson diagonalization with overlap

---- Real-time Memory Report at c_bands before calling an iterative solver
            56 MiB given to the printing process from OS
             0 MiB allocation reported by mallinfo(arena+hblkhd)
           521 MiB available memory on the node where the printing process lives
------------------
     ethr =  5.25E-08,  avg # of iterations =  3.0

     negative rho (up, down):  3.868E-01 0.000E+00

     total cpu time spent up to now is        4.4 secs

     total energy              =      -2.03037368 Ry
     estimated scf accuracy    <       0.00000688 Ry

     iteration # 60     ecut=     5.00 Ry     beta= 0.70
     Davidson diagonalization with overlap

---- Real-time Memory Report at c_bands before calling an iterative solver
            56 MiB given to the printing process from OS
             0 MiB allocation reported by mallinfo(arena+hblkhd)
           521 MiB available memory on the node where the printing process lives
------------------
     ethr =  5.25E-08,  avg # of iterations =  4.0

     negative rho (up, down):  3.864E-01 0.000E+00

     total cpu time spent up to now is        4.5 secs

     total energy              =      -2.03053247 Ry
     estimated scf accuracy    <       0.00001573 Ry

     iteration # 61     ecut=     5.00 Ry     beta= 0.70
     Davidson diagonalization with overlap

---- Real-time Memory Report at c_bands before calling an iterative solver
            56 MiB given to the printing process from OS
             0 MiB allocation reported by mallinfo(arena+hblkhd)
           521 MiB available memory on the node where the printing process lives
------------------
     ethr =  5.25E-08,  avg # of iterations =  4.0

     negative rho (up, down):  3.858E-01 0.000E+00

     total cpu time spent up to now is        4.6 secs

     total energy              =      -2.03083723 Ry
     estimated scf accuracy    <       0.00000503 Ry

     iteration # 62     ecut=     5.00 Ry     beta= 0.70
     Davidson diagonalization with overlap

---- Real-time Memory Report at c_bands before calling an iterative solver
            56 MiB given to the printing process from OS
             0 MiB allocation reported by mallinfo(arena+hblkhd)
           521 MiB available memory on the node where the printing process lives
------------------
     ethr =  5.25E-08,  avg # of iterations =  3.0

     negative rho (up, down):  3.861E-01 0.000E+00

     total cpu time spent up to now is        4.6 secs

     total energy              =      -2.03079562 Ry
     estimated scf accuracy    <       0.00000248 Ry

     iteration # 63     ecut=     5.00 Ry     beta= 0.70
     Davidson diagonalization with overlap

---- Real-time Memory Report at c_bands before calling an iterative solver
            56 MiB given to the printing process from OS
             0 MiB allocation reported by mallinfo(arena+hblkhd)
           521 MiB available memory on the node where the printing process lives
------------------
     ethr =  5.25E-08,  avg # of iterations =  3.0

     negative rho (up, down):  3.863E-01 0.000E+00

     total cpu time spent up to now is        4.7 secs

     total energy              =      -2.03074633 Ry
     estimated scf accuracy    <       0.00000461 Ry

     iteration # 64     ecut=     5.00 Ry     beta= 0.70
     Davidson diagonalization with overlap

---- Real-time Memory Report at c_bands before calling an iterative solver
            56 MiB given to the printing process from OS
             0 MiB allocation reported by mallinfo(arena+hblkhd)
           521 MiB available memory on the node where the printing process lives
------------------
     ethr =  5.25E-08,  avg # of iterations =  2.0

     negative rho (up, down):  3.863E-01 0.000E+00

     total cpu time spent up to now is        4.8 secs

     total energy              =      -2.03073903 Ry
     estimated scf accuracy    <       0.00000526 Ry

     iteration # 65     ecut=     5.00 Ry     beta= 0.70
     Davidson diagonalization with overlap

---- Real-time Memory Report at c_bands before calling an iterative solver
            56 MiB given to the printing process from OS
             0 MiB allocation reported by mallinfo(arena+hblkhd)
           521 MiB available memory on the node where the printing process lives
------------------
     ethr =  5.25E-08,  avg # of iterations =  1.0

     negative rho (up, down):  3.861E-01 0.000E+00

     total cpu time spent up to now is        4.8 secs

     total energy              =      -2.03081635 Ry
     estimated scf accuracy    <       0.00000534 Ry

     iteration # 66     ecut=     5.00 Ry     beta= 0.70
     Davidson diagonalization with overlap

---- Real-time Memory Report at c_bands before calling an iterative solver
            56 MiB given to the printing process from OS
             0 MiB allocation reported by mallinfo(arena+hblkhd)
           521 MiB available memory on the node where the printing process lives
------------------
     ethr =  5.25E-08,  avg # of iterations =  3.0

     negative rho (up, down):  3.858E-01 0.000E+00

     total cpu time spent up to now is        4.9 secs

     total energy              =      -2.03085195 Ry
     estimated scf accuracy    <       0.00000385 Ry

     iteration # 67     ecut=     5.00 Ry     beta= 0.70
     Davidson diagonalization with overlap

---- Real-time Memory Report at c_bands before calling an iterative solver
            56 MiB given to the printing process from OS
             0 MiB allocation reported by mallinfo(arena+hblkhd)
           521 MiB available memory on the node where the printing process lives
------------------
     ethr =  5.25E-08,  avg # of iterations =  3.0

     negative rho (up, down):  3.857E-01 0.000E+00

     total cpu time spent up to now is        5.0 secs

     total energy              =      -2.03088972 Ry
     estimated scf accuracy    <       0.00000247 Ry

     iteration # 68     ecut=     5.00 Ry     beta= 0.70
     Davidson diagonalization with overlap

---- Real-time Memory Report at c_bands before calling an iterative solver
            56 MiB given to the printing process from OS
             0 MiB allocation reported by mallinfo(arena+hblkhd)
           521 MiB available memory on the node where the printing process lives
------------------
     ethr =  5.25E-08,  avg # of iterations =  2.0

     negative rho (up, down):  3.855E-01 0.000E+00

     total cpu time spent up to now is        5.0 secs

     total energy              =      -2.03095720 Ry
     estimated scf accuracy    <       0.00000210 Ry

     iteration # 69     ecut=     5.00 Ry     beta= 0.70
     Davidson diagonalization with overlap

---- Real-time Memory Report at c_bands before calling an iterative solver
            56 MiB given to the printing process from OS
             0 MiB allocation reported by mallinfo(arena+hblkhd)
           521 MiB available memory on the node where the printing process lives
------------------
     ethr =  5.25E-08,  avg # of iterations =  3.0

     negative rho (up, down):  3.850E-01 0.000E+00

     total cpu time spent up to now is        5.1 secs

     total energy              =      -2.03111005 Ry
     estimated scf accuracy    <       0.00000165 Ry

     iteration # 70     ecut=     5.00 Ry     beta= 0.70
     Davidson diagonalization with overlap

---- Real-time Memory Report at c_bands before calling an iterative solver
            56 MiB given to the printing process from OS
             0 MiB allocation reported by mallinfo(arena+hblkhd)
           521 MiB available memory on the node where the printing process lives
------------------
     ethr =  5.25E-08,  avg # of iterations =  2.0

     negative rho (up, down):  3.848E-01 0.000E+00

     total cpu time spent up to now is        5.2 secs

     total energy              =      -2.03116412 Ry
     estimated scf accuracy    <       0.00000290 Ry

     iteration # 71     ecut=     5.00 Ry     beta= 0.70
     Davidson diagonalization with overlap

---- Real-time Memory Report at c_bands before calling an iterative solver
            56 MiB given to the printing process from OS
             0 MiB allocation reported by mallinfo(arena+hblkhd)
           521 MiB available memory on the node where the printing process lives
------------------
     ethr =  5.25E-08,  avg # of iterations =  2.0

     negative rho (up, down):  3.865E-01 0.000E+00

     total cpu time spent up to now is        5.3 secs

     total energy              =      -2.03059089 Ry
     estimated scf accuracy    <       0.00000408 Ry

     iteration # 72     ecut=     5.00 Ry     beta= 0.70
     Davidson diagonalization with overlap

---- Real-time Memory Report at c_bands before calling an iterative solver
            56 MiB given to the printing process from OS
             0 MiB allocation reported by mallinfo(arena+hblkhd)
           521 MiB available memory on the node where the printing process lives
------------------
     ethr =  5.25E-08,  avg # of iterations =  4.0

     negative rho (up, down):  3.870E-01 0.000E+00

     total cpu time spent up to now is        5.3 secs

     total energy              =      -2.03046394 Ry
     estimated scf accuracy    <       0.00000577 Ry

     iteration # 73     ecut=     5.00 Ry     beta= 0.70
     Davidson diagonalization with overlap

---- Real-time Memory Report at c_bands before calling an iterative solver
            56 MiB given to the printing process from OS
             0 MiB allocation reported by mallinfo(arena+hblkhd)
           521 MiB available memory on the node where the printing process lives
------------------
     ethr =  5.25E-08,  avg # of iterations =  4.0

     negative rho (up, down):  3.876E-01 0.000E+00

     total cpu time spent up to now is        5.4 secs

     total energy              =      -2.02977066 Ry
     estimated scf accuracy    <       0.00002666 Ry

     iteration # 74     ecut=     5.00 Ry     beta= 0.70
     Davidson diagonalization with overlap

---- Real-time Memory Report at c_bands before calling an iterative solver
            56 MiB given to the printing process from OS
             0 MiB allocation reported by mallinfo(arena+hblkhd)
           521 MiB available memory on the node where the printing process lives
------------------
     ethr =  5.25E-08,  avg # of iterations =  4.0

     negative rho (up, down):  3.875E-01 0.000E+00

     total cpu time spent up to now is        5.5 secs

     total energy              =      -2.03005834 Ry
     estimated scf accuracy    <       0.00000018 Ry

     iteration # 75     ecut=     5.00 Ry     beta= 0.70
     Davidson diagonalization with overlap

---- Real-time Memory Report at c_bands before calling an iterative solver
            56 MiB given to the printing process from OS
             0 MiB allocation reported by mallinfo(arena+hblkhd)
           521 MiB available memory on the node where the printing process lives
------------------
     ethr =  9.23E-09,  avg # of iterations =  2.0

     negative rho (up, down):  3.866E-01 0.000E+00

     total cpu time spent up to now is        5.6 secs

     total energy              =      -2.03060689 Ry
     estimated scf accuracy    <       0.00000014 Ry

     iteration # 76     ecut=     5.00 Ry     beta= 0.70
     Davidson diagonalization with overlap

---- Real-time Memory Report at c_bands before calling an iterative solver
            56 MiB given to the printing process from OS
             0 MiB allocation reported by mallinfo(arena+hblkhd)
           521 MiB available memory on the node where the printing process lives
------------------
     ethr =  7.11E-09,  avg # of iterations =  4.0

     negative rho (up, down):  3.871E-01 0.000E+00

     total cpu time spent up to now is        5.6 secs

     total energy              =      -2.03076729 Ry
     estimated scf accuracy    <       0.00000555 Ry

     iteration # 77     ecut=     5.00 Ry     beta= 0.70
     Davidson diagonalization with overlap

---- Real-time Memory Report at c_bands before calling an iterative solver
            56 MiB given to the printing process from OS
             0 MiB allocation reported by mallinfo(arena+hblkhd)
           521 MiB available memory on the node where the printing process lives
------------------
     ethr =  7.11E-09,  avg # of iterations =  4.0

     negative rho (up, down):  3.867E-01 0.000E+00

     total cpu time spent up to now is        5.7 secs

     total energy              =      -2.02981386 Ry
     estimated scf accuracy    <       0.00010924 Ry

     iteration # 78     ecut=     5.00 Ry     beta= 0.70
     Davidson diagonalization with overlap

---- Real-time Memory Report at c_bands before calling an iterative solver
            56 MiB given to the printing process from OS
             0 MiB allocation reported by mallinfo(arena+hblkhd)
           521 MiB available memory on the node where the printing process lives
------------------
     ethr =  7.11E-09,  avg # of iterations =  5.0

     negative rho (up, down):  3.865E-01 0.000E+00

     total cpu time spent up to now is        5.8 secs

     total energy              =      -2.03069765 Ry
     estimated scf accuracy    <       0.00000086 Ry

     iteration # 79     ecut=     5.00 Ry     beta= 0.70
     Davidson diagonalization with overlap

---- Real-time Memory Report at c_bands before calling an iterative solver
            56 MiB given to the printing process from OS
             0 MiB allocation reported by mallinfo(arena+hblkhd)
           521 MiB available memory on the node where the printing process lives
------------------
     ethr =  7.11E-09,  avg # of iterations =  3.0

     negative rho (up, down):  3.869E-01 0.000E+00

     total cpu time spent up to now is        5.9 secs

     total energy              =      -2.03054481 Ry
     estimated scf accuracy    <       0.00000549 Ry

     iteration # 80     ecut=     5.00 Ry     beta= 0.70
     Davidson diagonalization with overlap

---- Real-time Memory Report at c_bands before calling an iterative solver
            56 MiB given to the printing process from OS
             0 MiB allocation reported by mallinfo(arena+hblkhd)
           521 MiB available memory on the node where the printing process lives
------------------
     ethr =  7.11E-09,  avg # of iterations =  4.0

     negative rho (up, down):  3.877E-01 0.000E+00

     total cpu time spent up to now is        5.9 secs

     total energy              =      -2.02993625 Ry
     estimated scf accuracy    <       0.00000191 Ry

     iteration # 81     ecut=     5.00 Ry     beta= 0.70
     Davidson diagonalization with overlap

---- Real-time Memory Report at c_bands before calling an iterative solver
            56 MiB given to the printing process from OS
             0 MiB allocation reported by mallinfo(arena+hblkhd)
           521 MiB available memory on the node where the printing process lives
------------------
     ethr =  7.11E-09,  avg # of iterations =  4.0

     negative rho (up, down):  3.871E-01 0.000E+00

     total cpu time spent up to now is        6.0 secs

     total energy              =      -2.03006920 Ry
     estimated scf accuracy    <       0.00000007 Ry

     iteration # 82     ecut=     5.00 Ry     beta= 0.70
     Davidson diagonalization with overlap

---- Real-time Memory Report at c_bands before calling an iterative solver
            56 MiB given to the printing process from OS
             0 MiB allocation reported by mallinfo(arena+hblkhd)
           521 MiB available memory on the node where the printing process lives
------------------
     ethr =  3.67E-09,  avg # of iterations =  5.0

     negative rho (up, down):  3.871E-01 0.000E+00

     total cpu time spent up to now is        6.1 secs

     total energy              =      -2.02988381 Ry
     estimated scf accuracy    <       0.00018457 Ry

     iteration # 83     ecut=     5.00 Ry     beta= 0.70
     Davidson diagonalization with overlap

---- Real-time Memory Report at c_bands before calling an iterative solver
            56 MiB given to the printing process from OS
             0 MiB allocation reported by mallinfo(arena+hblkhd)
           521 MiB available memory on the node where the printing process lives
------------------
     ethr =  3.67E-09,  avg # of iterations =  5.0

     negative rho (up, down):  3.870E-01 0.000E+00

     total cpu time spent up to now is        6.2 secs

     total energy              =      -2.03100239 Ry
     estimated scf accuracy    <       0.00002384 Ry

     iteration # 84     ecut=     5.00 Ry     beta= 0.70
     Davidson diagonalization with overlap

---- Real-time Memory Report at c_bands before calling an iterative solver
            56 MiB given to the printing process from OS
             0 MiB allocation reported by mallinfo(arena+hblkhd)
           521 MiB available memory on the node where the printing process lives
------------------
     ethr =  3.67E-09,  avg # of iterations =  5.0

     negative rho (up, down):  3.863E-01 0.000E+00

     total cpu time spent up to now is        6.2 secs

     total energy              =      -2.02922278 Ry
     estimated scf accuracy    <       0.00019772 Ry

     iteration # 85     ecut=     5.00 Ry     beta= 0.70
     Davidson diagonalization with overlap

---- Real-time Memory Report at c_bands before calling an iterative solver
            56 MiB given to the printing process from OS
             0 MiB allocation reported by mallinfo(arena+hblkhd)
           521 MiB available memory on the node where the printing process lives
------------------
     ethr =  3.67E-09,  avg # of iterations =  5.0

     negative rho (up, down):  3.869E-01 0.000E+00

     total cpu time spent up to now is        6.3 secs

     total energy              =      -2.03038156 Ry
     estimated scf accuracy    <       0.00000484 Ry

     iteration # 86     ecut=     5.00 Ry     beta= 0.70
     Davidson diagonalization with overlap

---- Real-time Memory Report at c_bands before calling an iterative solver
            56 MiB given to the printing process from OS
             0 MiB allocation reported by mallinfo(arena+hblkhd)
           521 MiB available memory on the node where the printing process lives
------------------
     ethr =  3.67E-09,  avg # of iterations =  5.0

     negative rho (up, down):  3.868E-01 0.000E+00

     total cpu time spent up to now is        6.4 secs

     total energy              =      -2.03015360 Ry
     estimated scf accuracy    <       0.00008413 Ry

     iteration # 87     ecut=     5.00 Ry     beta= 0.70
     Davidson diagonalization with overlap

---- Real-time Memory Report at c_bands before calling an iterative solver
            56 MiB given to the printing process from OS
             0 MiB allocation reported by mallinfo(arena+hblkhd)
           521 MiB available memory on the node where the printing process lives
------------------
     ethr =  3.67E-09,  avg # of iterations =  5.0

     negative rho (up, down):  3.866E-01 0.000E+00

     total cpu time spent up to now is        6.5 secs

     total energy              =      -2.03067542 Ry
     estimated scf accuracy    <       0.00000017 Ry

     iteration # 88     ecut=     5.00 Ry     beta= 0.70
     Davidson diagonalization with overlap

---- Real-time Memory Report at c_bands before calling an iterative solver
            56 MiB given to the printing process from OS
             0 MiB allocation reported by mallinfo(arena+hblkhd)
           521 MiB available memory on the node where the printing process lives
------------------
     ethr =  3.67E-09,  avg # of iterations =  4.0

     negative rho (up, down):  3.871E-01 0.000E+00

     total cpu time spent up to now is        6.6 secs

     total energy              =      -2.03034536 Ry
     estimated scf accuracy    <       0.00000562 Ry

     iteration # 89     ecut=     5.00 Ry     beta= 0.70
     Davidson diagonalization with overlap

---- Real-time Memory Report at c_bands before calling an iterative solver
            56 MiB given to the printing process from OS
             0 MiB allocation reported by mallinfo(arena+hblkhd)
           521 MiB available memory on the node where the printing process lives
------------------
     ethr =  3.67E-09,  avg # of iterations =  5.0

     negative rho (up, down):  3.862E-01 0.000E+00

     total cpu time spent up to now is        6.6 secs

     total energy              =      -2.03058798 Ry
     estimated scf accuracy    <       0.00003380 Ry

     iteration # 90     ecut=     5.00 Ry     beta= 0.70
     Davidson diagonalization with overlap

---- Real-time Memory Report at c_bands before calling an iterative solver
            56 MiB given to the printing process from OS
             0 MiB allocation reported by mallinfo(arena+hblkhd)
           521 MiB available memory on the node where the printing process lives
------------------
     ethr =  3.67E-09,  avg # of iterations =  5.0

     negative rho (up, down):  3.865E-01 0.000E+00

     total cpu time spent up to now is        6.7 secs

     total energy              =      -2.03073127 Ry
     estimated scf accuracy    <       0.00000422 Ry

     iteration # 91     ecut=     5.00 Ry     beta= 0.70
     Davidson diagonalization with overlap

---- Real-time Memory Report at c_bands before calling an iterative solver
            56 MiB given to the printing process from OS
             0 MiB allocation reported by mallinfo(arena+hblkhd)
           521 MiB available memory on the node where the printing process lives
------------------
     ethr =  3.67E-09,  avg # of iterations =  4.0

     negative rho (up, down):  3.869E-01 0.000E+00

     total cpu time spent up to now is        6.8 secs

     total energy              =      -2.03029882 Ry
     estimated scf accuracy    <       0.00000590 Ry

     iteration # 92     ecut=     5.00 Ry     beta= 0.70
     Davidson diagonalization with overlap

---- Real-time Memory Report at c_bands before calling an iterative solver
            56 MiB given to the printing process from OS
             0 MiB allocation reported by mallinfo(arena+hblkhd)
           521 MiB available memory on the node where the printing process lives
------------------
     ethr =  3.67E-09,  avg # of iterations =  5.0

     negative rho (up, down):  3.869E-01 0.000E+00

     total cpu time spent up to now is        6.9 secs

     total energy              =      -2.03089783 Ry
     estimated scf accuracy    <       0.00027605 Ry

     iteration # 93     ecut=     5.00 Ry     beta= 0.70
     Davidson diagonalization with overlap

---- Real-time Memory Report at c_bands before calling an iterative solver
            56 MiB given to the printing process from OS
             0 MiB allocation reported by mallinfo(arena+hblkhd)
           521 MiB available memory on the node where the printing process lives
------------------
     ethr =  3.67E-09,  avg # of iterations =  5.0

     negative rho (up, down):  3.879E-01 0.000E+00

     total cpu time spent up to now is        6.9 secs

     total energy              =      -2.02934386 Ry
     estimated scf accuracy    <       0.00008766 Ry

     iteration # 94     ecut=     5.00 Ry     beta= 0.70
     Davidson diagonalization with overlap

---- Real-time Memory Report at c_bands before calling an iterative solver
            56 MiB given to the printing process from OS
             0 MiB allocation reported by mallinfo(arena+hblkhd)
           521 MiB available memory on the node where the printing process lives
------------------
     ethr =  3.67E-09,  avg # of iterations =  5.0

     negative rho (up, down):  3.867E-01 0.000E+00

     total cpu time spent up to now is        7.0 secs

     total energy              =      -2.03060476 Ry
     estimated scf accuracy    <       0.00000110 Ry

     iteration # 95     ecut=     5.00 Ry     beta= 0.70
     Davidson diagonalization with overlap

---- Real-time Memory Report at c_bands before calling an iterative solver
            56 MiB given to the printing process from OS
             0 MiB allocation reported by mallinfo(arena+hblkhd)
           521 MiB available memory on the node where the printing process lives
------------------
     ethr =  3.67E-09,  avg # of iterations =  5.0

     negative rho (up, down):  3.868E-01 0.000E+00

     total cpu time spent up to now is        7.1 secs

     total energy              =      -2.03061043 Ry
     estimated scf accuracy    <       0.00000346 Ry

     iteration # 96     ecut=     5.00 Ry     beta= 0.70
     Davidson diagonalization with overlap

---- Real-time Memory Report at c_bands before calling an iterative solver
            56 MiB given to the printing process from OS
             0 MiB allocation reported by mallinfo(arena+hblkhd)
           521 MiB available memory on the node where the printing process lives
------------------
     ethr =  3.67E-09,  avg # of iterations =  3.0

     negative rho (up, down):  3.867E-01 0.000E+00

     total cpu time spent up to now is        7.2 secs

     total energy              =      -2.03064633 Ry
     estimated scf accuracy    <       0.00000235 Ry

     iteration # 97     ecut=     5.00 Ry     beta= 0.70
     Davidson diagonalization with overlap

---- Real-time Memory Report at c_bands before calling an iterative solver
            56 MiB given to the printing process from OS
             0 MiB allocation reported by mallinfo(arena+hblkhd)
           521 MiB available memory on the node where the printing process lives
------------------
     ethr =  3.67E-09,  avg # of iterations =  3.0

     negative rho (up, down):  3.866E-01 0.000E+00

     total cpu time spent up to now is        7.3 secs

     total energy              =      -2.03066217 Ry
     estimated scf accuracy    <       0.00000293 Ry

     iteration # 98     ecut=     5.00 Ry     beta= 0.70
     Davidson diagonalization with overlap

---- Real-time Memory Report at c_bands before calling an iterative solver
            56 MiB given to the printing process from OS
             0 MiB allocation reported by mallinfo(arena+hblkhd)
           521 MiB available memory on the node where the printing process lives
------------------
     ethr =  3.67E-09,  avg # of iterations =  3.0

     negative rho (up, down):  3.867E-01 0.000E+00

     total cpu time spent up to now is        7.3 secs

     total energy              =      -2.03064008 Ry
     estimated scf accuracy    <       0.00000318 Ry

     iteration # 99     ecut=     5.00 Ry     beta= 0.70
     Davidson diagonalization with overlap

---- Real-time Memory Report at c_bands before calling an iterative solver
            56 MiB given to the printing process from OS
             0 MiB allocation reported by mallinfo(arena+hblkhd)
           521 MiB available memory on the node where the printing process lives
------------------
     ethr =  3.67E-09,  avg # of iterations =  3.0

     negative rho (up, down):  3.867E-01 0.000E+00

     total cpu time spent up to now is        7.4 secs

     total energy              =      -2.03065526 Ry
     estimated scf accuracy    <       0.00000333 Ry

     iteration #100     ecut=     5.00 Ry     beta= 0.70
     Davidson diagonalization with overlap

---- Real-time Memory Report at c_bands before calling an iterative solver
            56 MiB given to the printing process from OS
             0 MiB allocation reported by mallinfo(arena+hblkhd)
           521 MiB available memory on the node where the printing process lives
------------------
     ethr =  3.67E-09,  avg # of iterations =  2.0

     negative rho (up, down):  3.868E-01 0.000E+00

     total cpu time spent up to now is        7.5 secs

     total energy              =      -2.03056597 Ry
     estimated scf accuracy    <       0.00000346 Ry

     End of self-consistent calculation

     convergence NOT achieved after 100 iterations: stopping

     Writing config to output data dir ./.save/
     Message from routine punch:
     wavefunctions written to file

     init_run     :      0.07s CPU      0.08s WALL (       1 calls)
     electrons    :      7.36s CPU      7.41s WALL (       1 calls)

     Called by init_run:
     wfcinit      :      0.01s CPU      0.01s WALL (       1 calls)
     wfcinit:atom :      0.00s CPU      0.00s WALL (       1 calls)
     wfcinit:wfcr :      0.01s CPU      0.01s WALL (       1 calls)
     potinit      :      0.04s CPU      0.05s WALL (       1 calls)
     hinit0       :      0.01s CPU      0.01s WALL (       1 calls)

     Called by electrons:
     c_bands      :      1.54s CPU      1.55s WALL (     100 calls)
     sum_band     :      0.79s CPU      0.80s WALL (     100 calls)
     v_of_rho     :      3.94s CPU      3.96s WALL (     101 calls)
     v_h          :      0.20s CPU      0.20s WALL (     101 calls)
     v_xc         :      3.74s CPU      3.76s WALL (     101 calls)
     newd         :      0.24s CPU      0.25s WALL (     101 calls)
     mix_rho      :      0.81s CPU      0.82s WALL (     100 calls)

     Called by c_bands:
     init_us_2    :      0.03s CPU      0.03s WALL (     201 calls)
     init_us_2:cp :      0.03s CPU      0.03s WALL (     201 calls)
     cegterg      :      1.51s CPU      1.53s WALL (     100 calls)

     Called by sum_band:
     sum_band:wei :      0.00s CPU      0.00s WALL (     100 calls)
     sum_band:loo :      0.23s CPU      0.24s WALL (     100 calls)
     sum_band:buf :      0.00s CPU      0.00s WALL (     100 calls)
     sum_band:ini :      0.01s CPU      0.01s WALL (     100 calls)
     sum_band:cal :      0.00s CPU      0.00s WALL (     100 calls)
     sum_band:bec :      0.00s CPU      0.00s WALL (     100 calls)
     addusdens    :      0.07s CPU      0.07s WALL (     100 calls)
     addusd:skk   :      0.02s CPU      0.02s WALL (     100 calls)
     addusd:dgemm :      0.02s CPU      0.02s WALL (     100 calls)
     addusd:qvan2 :      0.02s CPU      0.02s WALL (     100 calls)

     Called by *egterg:
     cdiaghg      :      0.01s CPU      0.01s WALL (     432 calls)
     cegterg:over :      0.02s CPU      0.02s WALL (     332 calls)
     cegterg:upda :      0.02s CPU      0.02s WALL (     332 calls)
     cegterg:last :      0.03s CPU      0.03s WALL (     255 calls)
     h_psi        :      1.41s CPU      1.42s WALL (     433 calls)
     s_psi        :      0.01s CPU      0.01s WALL (     433 calls)
     g_psi        :      0.01s CPU      0.01s WALL (     332 calls)

     Called by h_psi:
     h_psi:calbec :      0.01s CPU      0.01s WALL (     433 calls)
     vloc_psi     :      1.38s CPU      1.39s WALL (     433 calls)
     add_vuspsi   :      0.01s CPU      0.01s WALL (     433 calls)

     General routines
     calbec       :      0.01s CPU      0.01s WALL (     533 calls)
     fft          :      1.72s CPU      1.72s WALL (    1111 calls)
     ffts         :      0.15s CPU      0.16s WALL (     100 calls)
     fftw         :      1.48s CPU      1.49s WALL (    1524 calls)
     davcio       :      0.00s CPU      0.00s WALL (      19 calls)


     PWSCF        :      7.47s CPU      7.52s WALL


   This run was terminated on:   2:53:57  28Feb2022            

=------------------------------------------------------------------------------=
   JOB DONE.
=------------------------------------------------------------------------------=
