
     Program PWSCF v.7.0 starts on 28Feb2022 at 22:11:25 

     This program is part of the open-source Quantum ESPRESSO suite
     for quantum simulation of materials; please cite
         "P. Giannozzi et al., J. Phys.:Condens. Matter 21 395502 (2009);
         "P. Giannozzi et al., J. Phys.:Condens. Matter 29 465901 (2017);
         "P. Giannozzi et al., J. Chem. Phys. 152 154105 (2020);
          URL http://www.quantum-espresso.org", 
     in publications or presentations arising from this work. More details at
     http://www.quantum-espresso.org/quote

     Serial version
     1117 MiB available memory on the printing compute node when the environment starts

     Waiting for input...
     Reading input from standard input

     Current dimensions of program PWSCF are:
     Max number of different atomic species (ntypx) = 10
     Max number of k-points (npk) =  40000
     Max angular momentum in pseudopotentials (lmaxx) =  4

    ============================================================
    |  pseudopotential report for atomic species:  1           |
    |        pseudo potential version   7   3   2              |
    ------------------------------------------------------------
    |  oxygen              PBE                  exchange-corr  |
    |  z =   8.    zv( 1) =   6.    exfact =   5.00000         |
    |  ifpcor =  0           atomic energy = -31.58351 Ry      |
    |  index    orbital      occupation    energy              |
    |    1        200           2.00       -1.76               |
    |    2        210           4.00       -0.66               |
    |  rinner =  0.7000  0.7000  0.7000                        |
    |    new generation scheme:                                |
    |    nbeta =  4     kkbeta =  519     rcloc =    1.0000    |
    |    ibeta    l     epsilon   rcut                         |
    |      1       0      -1.76   1.20                         |
    |      2       0      -0.66   1.20                         |
    |      3       1      -1.76   1.20                         |
    |      4       1      -0.66   1.20                         |
    ============================================================

     G-vector sticks info
     --------------------
     sticks:   dense  smooth     PW     G-vecs:    dense   smooth      PW
     Sum        8121    8121   2185               552629   552629   76693

     Using Slab Decomposition



     bravais-lattice index     =            1
     lattice parameter (alat)  =      32.0000  a.u.
     unit-cell volume          =   32768.0000 (a.u.)^3
     number of atoms/cell      =            2
     number of atomic types    =            1
     number of electrons       =        12.00
     number of Kohn-Sham states=            6
     kinetic-energy cutoff     =      25.0000  Ry
     charge density cutoff     =     100.0000  Ry
     scf convergence threshold =      1.0E-08
     mixing beta               =       0.7000
     number of iterations used =            8  plain     mixing
     Exchange-correlation= PBE
                           (   1   4   3   4   0   0   0)

     celldm(1)=  32.000000  celldm(2)=   0.000000  celldm(3)=   0.000000
     celldm(4)=   0.000000  celldm(5)=   0.000000  celldm(6)=   0.000000

     crystal axes: (cart. coord. in units of alat)
               a(1) = (   1.000000   0.000000   0.000000 )  
               a(2) = (   0.000000   1.000000   0.000000 )  
               a(3) = (   0.000000   0.000000   1.000000 )  

     reciprocal axes: (cart. coord. in units 2 pi/alat)
               b(1) = (  1.000000  0.000000  0.000000 )  
               b(2) = (  0.000000  1.000000  0.000000 )  
               b(3) = (  0.000000  0.000000  1.000000 )  


     PseudoPot. # 1 for ox read from file:
     /root/q-e/pseudo/O_US.van
     MD5 check sum: 7e325307d184e51bd80757047dcf04f9
     Pseudo is Ultrasoft, Zval =  6.0
     Generated by Vanderbilt code, v. 7.3.2
     Using radial grid of  737 points,  4 beta functions with: 
                l(1) =   0
                l(2) =   0
                l(3) =   1
                l(4) =   1
     Q(r) pseudized with  8 coefficients,  rinner =    0.700   0.700   0.700


     atomic species   valence    mass     pseudopotential
        O              6.00    15.99900     ox( 1.00)

      8 Sym. Ops. (no inversion) found


                                    s                        frac. trans.

      isym =  1     identity                                     

 cryst.   s( 1) = (     1          0          0      )
                  (     0          1          0      )
                  (     0          0          1      )

 cart.    s( 1) = (  1.0000000  0.0000000  0.0000000 )
                  (  0.0000000  1.0000000  0.0000000 )
                  (  0.0000000  0.0000000  1.0000000 )


      isym =  2     180 deg rotation - cart. axis [1,0,0]        

 cryst.   s( 2) = (     1          0          0      )
                  (     0         -1          0      )
                  (     0          0         -1      )

 cart.    s( 2) = (  1.0000000  0.0000000  0.0000000 )
                  (  0.0000000 -1.0000000  0.0000000 )
                  (  0.0000000  0.0000000 -1.0000000 )


      isym =  3      90 deg rotation - cart. axis [-1,0,0]       

 cryst.   s( 3) = (     1          0          0      )
                  (     0          0         -1      )
                  (     0          1          0      )

 cart.    s( 3) = (  1.0000000  0.0000000  0.0000000 )
                  (  0.0000000  0.0000000  1.0000000 )
                  (  0.0000000 -1.0000000  0.0000000 )


      isym =  4      90 deg rotation - cart. axis [1,0,0]        

 cryst.   s( 4) = (     1          0          0      )
                  (     0          0          1      )
                  (     0         -1          0      )

 cart.    s( 4) = (  1.0000000  0.0000000  0.0000000 )
                  (  0.0000000  0.0000000 -1.0000000 )
                  (  0.0000000  1.0000000  0.0000000 )


      isym =  5     inv. 180 deg rotation - cart. axis [0,0,1]   

 cryst.   s( 5) = (     1          0          0      )
                  (     0          1          0      )
                  (     0          0         -1      )

 cart.    s( 5) = (  1.0000000  0.0000000  0.0000000 )
                  (  0.0000000  1.0000000  0.0000000 )
                  (  0.0000000  0.0000000 -1.0000000 )


      isym =  6     inv. 180 deg rotation - cart. axis [0,1,0]   

 cryst.   s( 6) = (     1          0          0      )
                  (     0         -1          0      )
                  (     0          0          1      )

 cart.    s( 6) = (  1.0000000  0.0000000  0.0000000 )
                  (  0.0000000 -1.0000000  0.0000000 )
                  (  0.0000000  0.0000000  1.0000000 )


      isym =  7     inv. 180 deg rotation - cart. axis [0,1,1]   

 cryst.   s( 7) = (     1          0          0      )
                  (     0          0         -1      )
                  (     0         -1          0      )

 cart.    s( 7) = (  1.0000000  0.0000000  0.0000000 )
                  (  0.0000000  0.0000000 -1.0000000 )
                  (  0.0000000 -1.0000000  0.0000000 )


      isym =  8     inv. 180 deg rotation - cart. axis [0,1,-1]  

 cryst.   s( 8) = (     1          0          0      )
                  (     0          0          1      )
                  (     0          1          0      )

 cart.    s( 8) = (  1.0000000  0.0000000  0.0000000 )
                  (  0.0000000  0.0000000  1.0000000 )
                  (  0.0000000  1.0000000  0.0000000 )


     point group C_4v (4mm) 
     there are  5 classes
     the character table:

       E     2C4   C2    2s_v  2s_d 
A_1    1.00  1.00  1.00  1.00  1.00
A_2    1.00  1.00  1.00 -1.00 -1.00
B_1    1.00 -1.00  1.00  1.00 -1.00
B_2    1.00 -1.00  1.00 -1.00  1.00
E      2.00  0.00 -2.00  0.00  0.00

     the symmetry operations in each class and the name of the first element:

     E        1
          identity                                               
     2C4      3    4
           90 deg rotation - cart. axis [-1,0,0]                 
     C2       2
          180 deg rotation - cart. axis [1,0,0]                  
     2s_v     5    6
          inv. 180 deg rotation - cart. axis [0,0,1]             
     2s_d     7    8
          inv. 180 deg rotation - cart. axis [0,1,1]             

   Cartesian axes

     site n.     atom                  positions (alat units)
         1           O   tau(   1) = (   0.0000000   0.0000000   0.0000000  )
         2           O   tau(   2) = (   0.0707737   0.0000000   0.0000000  )

   Crystallographic axes

     site n.     atom                  positions (cryst. coord.)
         1           O   tau(   1) = (  0.0000000  0.0000000  0.0000000  )
         2           O   tau(   2) = (  0.0707737  0.0000000  0.0000000  )

     number of k points=     1
                       cart. coord. in units 2pi/alat
        k(    1) = (  -0.5000000  -0.5000000  -0.5000000), wk =   2.0000000

                       cryst. coord.
        k(    1) = (  -0.5000000  -0.5000000  -0.5000000), wk =   2.0000000

     Dense  grid:   552629 G-vectors     FFT dimensions: ( 108, 108, 108)

     Dynamical RAM for                 wfc:       6.33 MB

     Dynamical RAM for     wfc (w. buffer):       6.33 MB

     Dynamical RAM for           str. fact:       8.43 MB

     Dynamical RAM for           local pot:       0.00 MB

     Dynamical RAM for          nlocal pot:      16.89 MB

     Dynamical RAM for                qrad:       0.23 MB

     Dynamical RAM for          rho,v,vnew:      54.13 MB

     Dynamical RAM for               rhoin:      18.04 MB

     Dynamical RAM for            rho*nmix:     134.92 MB

     Dynamical RAM for           G-vectors:      35.84 MB

     Dynamical RAM for          h,s,v(r/c):       0.01 MB

     Dynamical RAM for          <psi|beta>:       0.00 MB

     Dynamical RAM for                 psi:      12.67 MB

     Dynamical RAM for                hpsi:      12.67 MB

     Dynamical RAM for                spsi:      12.67 MB

     Dynamical RAM for      wfcinit/wfcrot:      16.89 MB

     Dynamical RAM for           addusdens:     379.46 MB

     Estimated static dynamical RAM per process >     204.81 MB

     Estimated max dynamical RAM per process >     719.19 MB

     Initial potential from superposition of free atoms

     starting charge      12.0000, renormalised to      12.0000

     negative rho (up, down):  1.620E-01 0.000E+00
     Starting wfcs are    8 randomized atomic wfcs

     total cpu time spent up to now is        1.8 secs

     Self-consistent Calculation

     iteration #  1     ecut=    25.00 Ry     beta= 0.70
     Davidson diagonalization with overlap

---- Real-time Memory Report at c_bands before calling an iterative solver
           551 MiB given to the printing process from OS
             0 MiB allocation reported by mallinfo(arena+hblkhd)
           897 MiB available memory on the node where the printing process lives
------------------
     ethr =  1.00E-02,  avg # of iterations =  2.0

     Threshold (ethr) on eigenvalues was too large:
     Diagonalizing with lowered threshold

     Davidson diagonalization with overlap

---- Real-time Memory Report at c_bands before calling an iterative solver
           610 MiB given to the printing process from OS
             0 MiB allocation reported by mallinfo(arena+hblkhd)
           860 MiB available memory on the node where the printing process lives
------------------
     ethr =  4.67E-04,  avg # of iterations =  1.0

     negative rho (up, down):  1.529E-01 0.000E+00

     total cpu time spent up to now is        5.5 secs

     total energy              =     -63.73339429 Ry
     estimated scf accuracy    <       0.05413884 Ry

     iteration #  2     ecut=    25.00 Ry     beta= 0.70
     Davidson diagonalization with overlap

---- Real-time Memory Report at c_bands before calling an iterative solver
           741 MiB given to the printing process from OS
             0 MiB allocation reported by mallinfo(arena+hblkhd)
           691 MiB available memory on the node where the printing process lives
------------------
     ethr =  4.51E-04,  avg # of iterations =  2.0

     negative rho (up, down):  1.560E-01 0.000E+00

     total cpu time spent up to now is        8.2 secs

     total energy              =     -63.74329341 Ry
     estimated scf accuracy    <       0.00159865 Ry

     iteration #  3     ecut=    25.00 Ry     beta= 0.70
     Davidson diagonalization with overlap

---- Real-time Memory Report at c_bands before calling an iterative solver
           758 MiB given to the printing process from OS
             0 MiB allocation reported by mallinfo(arena+hblkhd)
           674 MiB available memory on the node where the printing process lives
------------------
     ethr =  1.33E-05,  avg # of iterations =  2.0

     negative rho (up, down):  1.590E-01 0.000E+00

     total cpu time spent up to now is       10.9 secs

     total energy              =     -63.74359396 Ry
     estimated scf accuracy    <       0.00021607 Ry

     iteration #  4     ecut=    25.00 Ry     beta= 0.70
     Davidson diagonalization with overlap

---- Real-time Memory Report at c_bands before calling an iterative solver
           774 MiB given to the printing process from OS
             0 MiB allocation reported by mallinfo(arena+hblkhd)
           658 MiB available memory on the node where the printing process lives
------------------
     ethr =  1.80E-06,  avg # of iterations =  2.0

     negative rho (up, down):  1.603E-01 0.000E+00

     total cpu time spent up to now is       13.5 secs

     total energy              =     -63.74361795 Ry
     estimated scf accuracy    <       0.00001590 Ry

     iteration #  5     ecut=    25.00 Ry     beta= 0.70
     Davidson diagonalization with overlap

---- Real-time Memory Report at c_bands before calling an iterative solver
           791 MiB given to the printing process from OS
             0 MiB allocation reported by mallinfo(arena+hblkhd)
           641 MiB available memory on the node where the printing process lives
------------------
     ethr =  1.33E-07,  avg # of iterations =  2.0

     negative rho (up, down):  1.603E-01 0.000E+00

     total cpu time spent up to now is       16.1 secs

     total energy              =     -63.74361898 Ry
     estimated scf accuracy    <       0.00000100 Ry

     iteration #  6     ecut=    25.00 Ry     beta= 0.70
     Davidson diagonalization with overlap

---- Real-time Memory Report at c_bands before calling an iterative solver
           808 MiB given to the printing process from OS
             0 MiB allocation reported by mallinfo(arena+hblkhd)
           624 MiB available memory on the node where the printing process lives
------------------
     ethr =  8.35E-09,  avg # of iterations =  2.0

     negative rho (up, down):  1.603E-01 0.000E+00

     total cpu time spent up to now is       18.7 secs

     total energy              =     -63.74361916 Ry
     estimated scf accuracy    <       0.00000012 Ry

     iteration #  7     ecut=    25.00 Ry     beta= 0.70
     Davidson diagonalization with overlap

---- Real-time Memory Report at c_bands before calling an iterative solver
           825 MiB given to the printing process from OS
             0 MiB allocation reported by mallinfo(arena+hblkhd)
           607 MiB available memory on the node where the printing process lives
------------------
     ethr =  1.02E-09,  avg # of iterations =  2.0

     negative rho (up, down):  1.603E-01 0.000E+00

     total cpu time spent up to now is       21.2 secs

     End of self-consistent calculation

          k =-0.5000-0.5000-0.5000 ( 68976 PWs)   bands (ev):

   -32.9063 -19.6788 -13.1491 -12.8765 -12.8765  -5.7541

     occupation numbers 
     1.0000   1.0000   1.0000   1.0000   1.0000   1.0000

     highest occupied level (ev):    -5.7541

!    total energy              =     -63.74361917 Ry
     estimated scf accuracy    <          5.4E-09 Ry

     The total energy is the sum of the following terms:
     one-electron contribution =    -141.77103265 Ry
     hartree contribution      =      72.54871214 Ry
     xc contribution           =     -13.56872428 Ry
     ewald contribution        =      19.04742562 Ry

     convergence has been achieved in   7 iterations

     Writing all to output data dir ./.save/

     init_run     :      1.74s CPU      1.81s WALL (       1 calls)
     electrons    :     18.39s CPU     19.38s WALL (       1 calls)

     Called by init_run:
     wfcinit      :      0.43s CPU      0.43s WALL (       1 calls)
     wfcinit:atom :      0.01s CPU      0.01s WALL (       1 calls)
     wfcinit:wfcr :      0.38s CPU      0.38s WALL (       1 calls)
     potinit      :      0.72s CPU      0.75s WALL (       1 calls)
     hinit0       :      0.11s CPU      0.12s WALL (       1 calls)

     Called by electrons:
     c_bands      :      6.96s CPU      6.97s WALL (       8 calls)
     sum_band     :      4.08s CPU      4.58s WALL (       8 calls)
     v_of_rho     :      5.38s CPU      5.42s WALL (       8 calls)
     v_h          :      0.30s CPU      0.30s WALL (       8 calls)
     v_xc         :      5.08s CPU      5.12s WALL (       8 calls)
     newd         :      2.24s CPU      2.71s WALL (       8 calls)
     mix_rho      :      0.52s CPU      0.54s WALL (       8 calls)

     Called by c_bands:
     init_us_2    :      0.17s CPU      0.18s WALL (      17 calls)
     init_us_2:cp :      0.17s CPU      0.17s WALL (      17 calls)
     cegterg      :      6.77s CPU      6.78s WALL (       8 calls)

     Called by sum_band:
     sum_band:wei :      0.00s CPU      0.00s WALL (       8 calls)
     sum_band:loo :      1.18s CPU      1.18s WALL (       8 calls)
     sum_band:buf :      0.00s CPU      0.00s WALL (       8 calls)
     sum_band:ini :      0.08s CPU      0.08s WALL (       8 calls)
     sum_band:cal :      0.07s CPU      0.07s WALL (       8 calls)
     sum_band:bec :      0.00s CPU      0.00s WALL (       8 calls)
     addusdens    :      2.20s CPU      2.69s WALL (       8 calls)
     addusd:skk   :      0.03s CPU      0.03s WALL (       8 calls)
     addusd:dgemm :      0.70s CPU      1.13s WALL (       8 calls)
     addusd:qvan2 :      0.92s CPU      0.92s WALL (       8 calls)

     Called by *egterg:
     cdiaghg      :      0.00s CPU      0.00s WALL (      22 calls)
     cegterg:over :      0.18s CPU      0.18s WALL (      15 calls)
     cegterg:upda :      0.10s CPU      0.10s WALL (      15 calls)
     cegterg:last :      0.19s CPU      0.19s WALL (      15 calls)
     h_psi        :      6.37s CPU      6.39s WALL (      24 calls)
     s_psi        :      0.17s CPU      0.17s WALL (      24 calls)
     g_psi        :      0.02s CPU      0.02s WALL (      15 calls)

     Called by h_psi:
     h_psi:calbec :      0.21s CPU      0.21s WALL (      24 calls)
     vloc_psi     :      5.98s CPU      5.99s WALL (      24 calls)
     add_vuspsi   :      0.17s CPU      0.17s WALL (      24 calls)

     General routines
     calbec       :      0.28s CPU      0.28s WALL (      32 calls)
     fft          :      2.60s CPU      2.61s WALL (      88 calls)
     ffts         :      0.24s CPU      0.24s WALL (       8 calls)
     fftw         :      6.32s CPU      6.33s WALL (     320 calls)


     PWSCF        :     20.22s CPU     21.30s WALL


   This run was terminated on:  22:11:46  28Feb2022            

=------------------------------------------------------------------------------=
   JOB DONE.
=------------------------------------------------------------------------------=
