
     Program PWSCF v.7.0 starts on 28Feb2022 at  1: 3: 5 

     This program is part of the open-source Quantum ESPRESSO suite
     for quantum simulation of materials; please cite
         "P. Giannozzi et al., J. Phys.:Condens. Matter 21 395502 (2009);
         "P. Giannozzi et al., J. Phys.:Condens. Matter 29 465901 (2017);
         "P. Giannozzi et al., J. Chem. Phys. 152 154105 (2020);
          URL http://www.quantum-espresso.org", 
     in publications or presentations arising from this work. More details at
     http://www.quantum-espresso.org/quote

     Serial version
     423 MiB available memory on the printing compute node when the environment starts

     Waiting for input...
     Reading input from standard input

     Current dimensions of program PWSCF are:
     Max number of different atomic species (ntypx) = 10
     Max number of k-points (npk) =  40000
     Max angular momentum in pseudopotentials (lmaxx) =  4

     File ./.update deleted, as requested

     File ./.bfgs deleted, as requested

    ============================================================
    |  pseudopotential report for atomic species:  1           |
    |        pseudo potential version   7   3   2              |
    ------------------------------------------------------------
    |  hydrogen            PBE                  exchange-corr  |
    |  z =   1.    zv( 1) =   1.    exfact =   5.00000         |
    |  ifpcor =  0           atomic energy =  -0.91772 Ry      |
    |  index    orbital      occupation    energy              |
    |    1        100           1.00       -0.48               |
    |  rinner =  0.5000                                        |
    |    new generation scheme:                                |
    |    nbeta =  1     kkbeta =  271     rcloc =    0.6000    |
    |    ibeta    l     epsilon   rcut                         |
    |      1       0      -0.48   0.80                         |
    ============================================================

     IMPORTANT: XC functional enforced from input :
     Exchange-correlation= BLYP
                           (   1   3   1   3   0   0   0)
     Any further DFT definition will be discarded
     Please, verify this is what you really want


     G-vector sticks info
     --------------------
     sticks:   dense  smooth     PW     G-vecs:    dense   smooth      PW
     Sum        7153    7153   1925               455863   455863   63461

     Using Slab Decomposition



     bravais-lattice index     =            1
     lattice parameter (alat)  =      30.0000  a.u.
     unit-cell volume          =   27000.0000 (a.u.)^3
     number of atoms/cell      =            2
     number of atomic types    =            1
     number of electrons       =         2.00
     number of Kohn-Sham states=            2
     kinetic-energy cutoff     =      25.0000  Ry
     charge density cutoff     =     100.0000  Ry
     scf convergence threshold =      1.0E-08
     mixing beta               =       0.7000
     number of iterations used =            8  plain     mixing
     energy convergence thresh.=      1.0E-04
     force convergence thresh. =      1.0E-03
     Exchange-correlation= BLYP
                           (   1   3   1   3   0   0   0)
     nstep                     =           50


     celldm(1)=  30.000000  celldm(2)=   0.000000  celldm(3)=   0.000000
     celldm(4)=   0.000000  celldm(5)=   0.000000  celldm(6)=   0.000000

     crystal axes: (cart. coord. in units of alat)
               a(1) = (   1.000000   0.000000   0.000000 )  
               a(2) = (   0.000000   1.000000   0.000000 )  
               a(3) = (   0.000000   0.000000   1.000000 )  

     reciprocal axes: (cart. coord. in units 2 pi/alat)
               b(1) = (  1.000000  0.000000  0.000000 )  
               b(2) = (  0.000000  1.000000  0.000000 )  
               b(3) = (  0.000000  0.000000  1.000000 )  


     PseudoPot. # 1 for hy read from file:
     /root/q-e/pseudo/H_US.van
     MD5 check sum: a9a9bfe98ff56cf4de197d71fc46bb44
     Pseudo is Ultrasoft, Zval =  1.0
     Generated by Vanderbilt code, v. 7.3.2
     Using radial grid of  399 points,  1 beta functions with: 
                l(1) =   0
     Q(r) pseudized with  8 coefficients,  rinner =    0.500

     atomic species   valence    mass     pseudopotential
        H              1.00     1.00784     hy( 1.00)

      8 Sym. Ops. (no inversion) found


                                    s                        frac. trans.

      isym =  1     identity                                     

 cryst.   s( 1) = (     1          0          0      )
                  (     0          1          0      )
                  (     0          0          1      )

 cart.    s( 1) = (  1.0000000  0.0000000  0.0000000 )
                  (  0.0000000  1.0000000  0.0000000 )
                  (  0.0000000  0.0000000  1.0000000 )


      isym =  2     180 deg rotation - cart. axis [1,0,0]        

 cryst.   s( 2) = (     1          0          0      )
                  (     0         -1          0      )
                  (     0          0         -1      )

 cart.    s( 2) = (  1.0000000  0.0000000  0.0000000 )
                  (  0.0000000 -1.0000000  0.0000000 )
                  (  0.0000000  0.0000000 -1.0000000 )


      isym =  3      90 deg rotation - cart. axis [-1,0,0]       

 cryst.   s( 3) = (     1          0          0      )
                  (     0          0         -1      )
                  (     0          1          0      )

 cart.    s( 3) = (  1.0000000  0.0000000  0.0000000 )
                  (  0.0000000  0.0000000  1.0000000 )
                  (  0.0000000 -1.0000000  0.0000000 )


      isym =  4      90 deg rotation - cart. axis [1,0,0]        

 cryst.   s( 4) = (     1          0          0      )
                  (     0          0          1      )
                  (     0         -1          0      )

 cart.    s( 4) = (  1.0000000  0.0000000  0.0000000 )
                  (  0.0000000  0.0000000 -1.0000000 )
                  (  0.0000000  1.0000000  0.0000000 )


      isym =  5     inv. 180 deg rotation - cart. axis [0,0,1]   

 cryst.   s( 5) = (     1          0          0      )
                  (     0          1          0      )
                  (     0          0         -1      )

 cart.    s( 5) = (  1.0000000  0.0000000  0.0000000 )
                  (  0.0000000  1.0000000  0.0000000 )
                  (  0.0000000  0.0000000 -1.0000000 )


      isym =  6     inv. 180 deg rotation - cart. axis [0,1,0]   

 cryst.   s( 6) = (     1          0          0      )
                  (     0         -1          0      )
                  (     0          0          1      )

 cart.    s( 6) = (  1.0000000  0.0000000  0.0000000 )
                  (  0.0000000 -1.0000000  0.0000000 )
                  (  0.0000000  0.0000000  1.0000000 )


      isym =  7     inv. 180 deg rotation - cart. axis [0,1,1]   

 cryst.   s( 7) = (     1          0          0      )
                  (     0          0         -1      )
                  (     0         -1          0      )

 cart.    s( 7) = (  1.0000000  0.0000000  0.0000000 )
                  (  0.0000000  0.0000000 -1.0000000 )
                  (  0.0000000 -1.0000000  0.0000000 )


      isym =  8     inv. 180 deg rotation - cart. axis [0,1,-1]  

 cryst.   s( 8) = (     1          0          0      )
                  (     0          0          1      )
                  (     0          1          0      )

 cart.    s( 8) = (  1.0000000  0.0000000  0.0000000 )
                  (  0.0000000  0.0000000  1.0000000 )
                  (  0.0000000  1.0000000  0.0000000 )


     point group C_4v (4mm) 
     there are  5 classes
     the character table:

       E     2C4   C2    2s_v  2s_d 
A_1    1.00  1.00  1.00  1.00  1.00
A_2    1.00  1.00  1.00 -1.00 -1.00
B_1    1.00 -1.00  1.00  1.00 -1.00
B_2    1.00 -1.00  1.00 -1.00  1.00
E      2.00  0.00 -2.00  0.00  0.00

     the symmetry operations in each class and the name of the first element:

     E        1
          identity                                               
     2C4      3    4
           90 deg rotation - cart. axis [-1,0,0]                 
     C2       2
          180 deg rotation - cart. axis [1,0,0]                  
     2s_v     5    6
          inv. 180 deg rotation - cart. axis [0,0,1]             
     2s_d     7    8
          inv. 180 deg rotation - cart. axis [0,1,1]             

   Cartesian axes

     site n.     atom                  positions (alat units)
         1           H   tau(   1) = (   0.0000000   0.0000000   0.0000000  )
         2           H   tau(   2) = (   0.0629909   0.0000000   0.0000000  )

   Crystallographic axes

     site n.     atom                  positions (cryst. coord.)
         1           H   tau(   1) = (  0.0000000  0.0000000  0.0000000  )
         2           H   tau(   2) = (  0.0629909  0.0000000  0.0000000  )

     number of k points=     1
                       cart. coord. in units 2pi/alat
        k(    1) = (  -0.5000000  -0.5000000  -0.5000000), wk =   2.0000000

                       cryst. coord.
        k(    1) = (  -0.5000000  -0.5000000  -0.5000000), wk =   2.0000000

     Dense  grid:   455863 G-vectors     FFT dimensions: (  96,  96,  96)

     Dynamical RAM for                 wfc:       1.74 MB

     Dynamical RAM for     wfc (w. buffer):       1.74 MB

     Dynamical RAM for           str. fact:       6.96 MB

     Dynamical RAM for           local pot:       0.00 MB

     Dynamical RAM for          nlocal pot:       1.74 MB

     Dynamical RAM for                qrad:       0.01 MB

     Dynamical RAM for          rho,v,vnew:      41.12 MB

     Dynamical RAM for               rhoin:      13.71 MB

     Dynamical RAM for            rho*nmix:     111.29 MB

     Dynamical RAM for           G-vectors:      29.56 MB

     Dynamical RAM for          h,s,v(r/c):       0.00 MB

     Dynamical RAM for          <psi|beta>:       0.00 MB

     Dynamical RAM for                 psi:       3.48 MB

     Dynamical RAM for                hpsi:       3.48 MB

     Dynamical RAM for                spsi:       3.48 MB

     Dynamical RAM for      wfcinit/wfcrot:       3.48 MB

     Dynamical RAM for           addusdens:      41.74 MB

     Dynamical RAM for          addusforce:      59.13 MB

     Estimated static dynamical RAM per process >     142.49 MB

     Estimated max dynamical RAM per process >     312.91 MB

     Initial potential from superposition of free atoms

     starting charge       2.0000, renormalised to       2.0000

     negative rho (up, down):  2.981E-02 0.000E+00
     Starting wfcs are    2 randomized atomic wfcs

     total cpu time spent up to now is        0.8 secs

     Self-consistent Calculation

     iteration #  1     ecut=    25.00 Ry     beta= 0.70
     Davidson diagonalization with overlap

---- Real-time Memory Report at c_bands before calling an iterative solver
           244 MiB given to the printing process from OS
             0 MiB allocation reported by mallinfo(arena+hblkhd)
           253 MiB available memory on the node where the printing process lives
------------------
     ethr =  1.00E-02,  avg # of iterations =  3.0

     negative rho (up, down):  3.320E-02 0.000E+00

     total cpu time spent up to now is        1.6 secs

     total energy              =      -2.26903050 Ry
     estimated scf accuracy    <       0.05562894 Ry

     iteration #  2     ecut=    25.00 Ry     beta= 0.70
     Davidson diagonalization with overlap

---- Real-time Memory Report at c_bands before calling an iterative solver
           307 MiB given to the printing process from OS
             0 MiB allocation reported by mallinfo(arena+hblkhd)
           128 MiB available memory on the node where the printing process lives
------------------
     ethr =  2.78E-03,  avg # of iterations =  1.0

     negative rho (up, down):  3.348E-02 0.000E+00

     total cpu time spent up to now is        2.3 secs

     total energy              =      -2.27216891 Ry
     estimated scf accuracy    <       0.00086216 Ry

     iteration #  3     ecut=    25.00 Ry     beta= 0.70
     Davidson diagonalization with overlap

---- Real-time Memory Report at c_bands before calling an iterative solver
           321 MiB given to the printing process from OS
             0 MiB allocation reported by mallinfo(arena+hblkhd)
           114 MiB available memory on the node where the printing process lives
------------------
     ethr =  4.31E-05,  avg # of iterations =  9.0

     negative rho (up, down):  3.295E-02 0.000E+00

     total cpu time spent up to now is        3.4 secs

     total energy              =      -2.27272592 Ry
     estimated scf accuracy    <       0.00001692 Ry

     iteration #  4     ecut=    25.00 Ry     beta= 0.70
     Davidson diagonalization with overlap

---- Real-time Memory Report at c_bands before calling an iterative solver
           335 MiB given to the printing process from OS
             0 MiB allocation reported by mallinfo(arena+hblkhd)
           100 MiB available memory on the node where the printing process lives
------------------
     ethr =  8.46E-07,  avg # of iterations =  6.0

     negative rho (up, down):  3.294E-02 0.000E+00

     total cpu time spent up to now is        4.2 secs

     total energy              =      -2.27272991 Ry
     estimated scf accuracy    <       0.00000061 Ry

     iteration #  5     ecut=    25.00 Ry     beta= 0.70
     Davidson diagonalization with overlap

---- Real-time Memory Report at c_bands before calling an iterative solver
           349 MiB given to the printing process from OS
             0 MiB allocation reported by mallinfo(arena+hblkhd)
           114 MiB available memory on the node where the printing process lives
------------------
     ethr =  3.04E-08,  avg # of iterations =  2.0

     negative rho (up, down):  3.294E-02 0.000E+00

     total cpu time spent up to now is        5.0 secs

     total energy              =      -2.27273269 Ry
     estimated scf accuracy    <       0.00000001 Ry

     iteration #  6     ecut=    25.00 Ry     beta= 0.70
     Davidson diagonalization with overlap

---- Real-time Memory Report at c_bands before calling an iterative solver
           363 MiB given to the printing process from OS
             0 MiB allocation reported by mallinfo(arena+hblkhd)
           100 MiB available memory on the node where the printing process lives
------------------
     ethr =  5.55E-10,  avg # of iterations =  2.0

     negative rho (up, down):  3.294E-02 0.000E+00

     total cpu time spent up to now is        5.8 secs

     End of self-consistent calculation

          k =-0.5000-0.5000-0.5000 ( 57016 PWs)   bands (ev):

    -9.3382  -1.0957

     occupation numbers 
     1.0000   0.0000

     highest occupied, lowest unoccupied level (ev):    -9.3382   -1.0957

!    total energy              =      -2.27273318 Ry
     estimated scf accuracy    <          5.7E-11 Ry

     The total energy is the sum of the following terms:
     one-electron contribution =      -3.65048067 Ry
     hartree contribution      =       1.94629057 Ry
     xc contribution           =      -1.24914843 Ry
     ewald contribution        =       0.68060535 Ry

     convergence has been achieved in   6 iterations

     Forces acting on atoms (cartesian axes, Ry/au):

     atom    1 type  1   force =     0.16256944    0.00000000    0.00000000
     atom    2 type  1   force =    -0.16256944    0.00000000    0.00000000
     The non-local contrib.  to forces
     atom    1 type  1   force =     0.05639753    0.00000000    0.00000000
     atom    2 type  1   force =    -0.05521684    0.00000000    0.00000000
     The ionic contribution  to forces
     atom    1 type  1   force =    -0.55946378    0.00000000   -0.00000000
     atom    2 type  1   force =     0.55946378   -0.00000000   -0.00000000
     The local contribution  to forces
     atom    1 type  1   force =     0.66622143    0.00000000    0.00000000
     atom    2 type  1   force =    -0.66621351    0.00000000    0.00000000
     The core correction contribution to forces
     atom    1 type  1   force =     0.00000000    0.00000000    0.00000000
     atom    2 type  1   force =     0.00000000    0.00000000    0.00000000
     The Hubbard contrib.    to forces
     atom    1 type  1   force =     0.00000000    0.00000000    0.00000000
     atom    2 type  1   force =     0.00000000    0.00000000    0.00000000
     The SCF correction term to forces
     atom    1 type  1   force =    -0.00001194   -0.00000000    0.00000000
     atom    2 type  1   force =    -0.00002908   -0.00000000   -0.00000000

     Total force =     0.229908     Total SCF correction =     0.000031

     BFGS Geometry Optimization
     Energy error            =      0.0E+00 Ry
     Gradient error          =      1.6E-01 Ry/Bohr

     number of scf cycles    =   1
     number of bfgs steps    =   0

     energy             new  =      -2.2727331770 Ry

     new trust radius        =       0.1625694412 bohr
     new conv_thr            =       0.0000000100 Ry


ATOMIC_POSITIONS (angstrom)
H             0.0860280435        0.0000000000        0.0000000000
H             0.9139719565        0.0000000000        0.0000000000



     Writing config-only to output data dir ./.save/
     NEW-OLD atomic charge density approx. for the potential

     negative rho (up, down):  3.282E-02 0.000E+00

     total cpu time spent up to now is        6.6 secs

     Self-consistent Calculation

     iteration #  1     ecut=    25.00 Ry     beta= 0.70
     Davidson diagonalization with overlap

---- Real-time Memory Report at c_bands before calling an iterative solver
           369 MiB given to the printing process from OS
             0 MiB allocation reported by mallinfo(arena+hblkhd)
           298 MiB available memory on the node where the printing process lives
------------------
     ethr =  1.00E-06,  avg # of iterations = 14.0

     negative rho (up, down):  3.835E-02 0.000E+00

     total cpu time spent up to now is        7.9 secs

     total energy              =      -2.31375615 Ry
     estimated scf accuracy    <       0.00477800 Ry

     iteration #  2     ecut=    25.00 Ry     beta= 0.70
     Davidson diagonalization with overlap

---- Real-time Memory Report at c_bands before calling an iterative solver
           369 MiB given to the printing process from OS
             0 MiB allocation reported by mallinfo(arena+hblkhd)
           173 MiB available memory on the node where the printing process lives
------------------
     ethr =  2.39E-04,  avg # of iterations =  1.0

     negative rho (up, down):  3.960E-02 0.000E+00

     total cpu time spent up to now is        8.6 secs

     total energy              =      -2.31335188 Ry
     estimated scf accuracy    <       0.00005386 Ry

     iteration #  3     ecut=    25.00 Ry     beta= 0.70
     Davidson diagonalization with overlap

---- Real-time Memory Report at c_bands before calling an iterative solver
           369 MiB given to the printing process from OS
             0 MiB allocation reported by mallinfo(arena+hblkhd)
           159 MiB available memory on the node where the printing process lives
------------------
     ethr =  2.69E-06,  avg # of iterations =  7.0

     negative rho (up, down):  3.985E-02 0.000E+00

     total cpu time spent up to now is        9.5 secs

     total energy              =      -2.31320668 Ry
     estimated scf accuracy    <       0.00000210 Ry

     iteration #  4     ecut=    25.00 Ry     beta= 0.70
     Davidson diagonalization with overlap

---- Real-time Memory Report at c_bands before calling an iterative solver
           369 MiB given to the printing process from OS
             0 MiB allocation reported by mallinfo(arena+hblkhd)
           145 MiB available memory on the node where the printing process lives
------------------
     ethr =  1.05E-07,  avg # of iterations =  2.0

     negative rho (up, down):  3.984E-02 0.000E+00

     total cpu time spent up to now is       10.2 secs

     End of self-consistent calculation

          k =-0.5000-0.5000-0.5000 ( 57016 PWs)   bands (ev):

   -10.0143  -0.9830

     occupation numbers 
     1.0000   0.0000

     highest occupied, lowest unoccupied level (ev):   -10.0143   -0.9830

!    total energy              =      -2.31321226 Ry
     estimated scf accuracy    <          1.9E-09 Ry

     The total energy is the sum of the following terms:
     one-electron contribution =      -4.01534680 Ry
     hartree contribution      =       2.13830656 Ry
     xc contribution           =      -1.33653938 Ry
     ewald contribution        =       0.90036737 Ry

     convergence has been achieved in   4 iterations

     Forces acting on atoms (cartesian axes, Ry/au):

     atom    1 type  1   force =     0.09883251    0.00000000    0.00000000
     atom    2 type  1   force =    -0.09883251    0.00000000    0.00000000
     The non-local contrib.  to forces
     atom    1 type  1   force =     0.10084658    0.00000000    0.00000000
     atom    2 type  1   force =    -0.10107178    0.00000000    0.00000000
     The ionic contribution  to forces
     atom    1 type  1   force =    -0.81652636   -0.00000000   -0.00000000
     atom    2 type  1   force =     0.81652636    0.00000000   -0.00000000
     The local contribution  to forces
     atom    1 type  1   force =     0.81441499    0.00000000    0.00000000
     atom    2 type  1   force =    -0.81440789    0.00000000    0.00000000
     The core correction contribution to forces
     atom    1 type  1   force =     0.00000000    0.00000000    0.00000000
     atom    2 type  1   force =     0.00000000    0.00000000    0.00000000
     The Hubbard contrib.    to forces
     atom    1 type  1   force =     0.00000000    0.00000000    0.00000000
     atom    2 type  1   force =     0.00000000    0.00000000    0.00000000
     The SCF correction term to forces
     atom    1 type  1   force =     0.00000340   -0.00000000   -0.00000000
     atom    2 type  1   force =     0.00002691    0.00000000    0.00000000

     Total force =     0.139770     Total SCF correction =     0.000027
     Energy error            =      4.0E-02 Ry
     Gradient error          =      9.9E-02 Ry/Bohr

     number of scf cycles    =   2
     number of bfgs steps    =   1

     energy             old  =      -2.2727331770 Ry
     energy             new  =      -2.3132122590 Ry

     CASE: energy            _new < energy            _old

     new trust radius        =       0.1788263854 bohr
     new conv_thr            =       0.0000000099 Ry


ATOMIC_POSITIONS (angstrom)
H             0.1806588913        0.0000000000        0.0000000000
H             0.8193411087        0.0000000000        0.0000000000



     Writing config-only to output data dir ./.save/
     NEW-OLD atomic charge density approx. for the potential

     negative rho (up, down):  3.694E-02 0.000E+00

     total cpu time spent up to now is       11.0 secs

     Self-consistent Calculation

     iteration #  1     ecut=    25.00 Ry     beta= 0.70
     Davidson diagonalization with overlap

---- Real-time Memory Report at c_bands before calling an iterative solver
           369 MiB given to the printing process from OS
             0 MiB allocation reported by mallinfo(arena+hblkhd)
           298 MiB available memory on the node where the printing process lives
------------------
     ethr =  1.00E-06,  avg # of iterations = 10.0

     negative rho (up, down):  4.636E-02 0.000E+00

     total cpu time spent up to now is       12.2 secs

     total energy              =      -2.29357954 Ry
     estimated scf accuracy    <       0.01079190 Ry

     iteration #  2     ecut=    25.00 Ry     beta= 0.70
     Davidson diagonalization with overlap

---- Real-time Memory Report at c_bands before calling an iterative solver
           369 MiB given to the printing process from OS
             0 MiB allocation reported by mallinfo(arena+hblkhd)
           173 MiB available memory on the node where the printing process lives
------------------
     ethr =  5.40E-04,  avg # of iterations =  1.0

     negative rho (up, down):  4.860E-02 0.000E+00

     total cpu time spent up to now is       12.9 secs

     total energy              =      -2.29305245 Ry
     estimated scf accuracy    <       0.00010089 Ry

     iteration #  3     ecut=    25.00 Ry     beta= 0.70
     Davidson diagonalization with overlap

---- Real-time Memory Report at c_bands before calling an iterative solver
           369 MiB given to the printing process from OS
             0 MiB allocation reported by mallinfo(arena+hblkhd)
           159 MiB available memory on the node where the printing process lives
------------------
     ethr =  5.04E-06,  avg # of iterations =  3.0

     negative rho (up, down):  4.908E-02 0.000E+00

     total cpu time spent up to now is       13.8 secs

     total energy              =      -2.29270639 Ry
     estimated scf accuracy    <       0.00000367 Ry

     iteration #  4     ecut=    25.00 Ry     beta= 0.70
     Davidson diagonalization with overlap

---- Real-time Memory Report at c_bands before calling an iterative solver
           369 MiB given to the printing process from OS
             0 MiB allocation reported by mallinfo(arena+hblkhd)
           145 MiB available memory on the node where the printing process lives
------------------
     ethr =  1.83E-07,  avg # of iterations =  5.0

     negative rho (up, down):  4.908E-02 0.000E+00

     total cpu time spent up to now is       14.7 secs

     total energy              =      -2.29270883 Ry
     estimated scf accuracy    <       0.00000002 Ry

     iteration #  5     ecut=    25.00 Ry     beta= 0.70
     Davidson diagonalization with overlap

---- Real-time Memory Report at c_bands before calling an iterative solver
           369 MiB given to the printing process from OS
             0 MiB allocation reported by mallinfo(arena+hblkhd)
           131 MiB available memory on the node where the printing process lives
------------------
     ethr =  7.55E-10,  avg # of iterations =  2.0

     negative rho (up, down):  4.908E-02 0.000E+00

     total cpu time spent up to now is       15.4 secs

     End of self-consistent calculation

          k =-0.5000-0.5000-0.5000 ( 57016 PWs)   bands (ev):

   -10.9785  -1.0431

     occupation numbers 
     1.0000   0.0000

     highest occupied, lowest unoccupied level (ev):   -10.9785   -1.0431

!    total energy              =      -2.29271128 Ry
     estimated scf accuracy    <          1.7E-10 Ry

     The total energy is the sum of the following terms:
     one-electron contribution =      -4.51061374 Ry
     hartree contribution      =       2.39708477 Ry
     xc contribution           =      -1.45819328 Ry
     ewald contribution        =       1.27901098 Ry

     convergence has been achieved in   5 iterations

     Forces acting on atoms (cartesian axes, Ry/au):

     atom    1 type  1   force =    -0.24259413    0.00000000    0.00000000
     atom    2 type  1   force =     0.24259413    0.00000000    0.00000000
     The non-local contrib.  to forces
     atom    1 type  1   force =     0.12061415    0.00000000    0.00000000
     atom    2 type  1   force =    -0.11985640    0.00000000    0.00000000
     The ionic contribution  to forces
     atom    1 type  1   force =    -1.37259866    0.00000000   -0.00000000
     atom    2 type  1   force =     1.37259866    0.00000000   -0.00000000
     The local contribution  to forces
     atom    1 type  1   force =     1.00975807    0.00000000    0.00000000
     atom    2 type  1   force =    -1.00979710    0.00000000    0.00000000
     The core correction contribution to forces
     atom    1 type  1   force =     0.00000000    0.00000000    0.00000000
     atom    2 type  1   force =     0.00000000    0.00000000    0.00000000
     The Hubbard contrib.    to forces
     atom    1 type  1   force =     0.00000000    0.00000000    0.00000000
     atom    2 type  1   force =     0.00000000    0.00000000    0.00000000
     The SCF correction term to forces
     atom    1 type  1   force =     0.00008319    0.00000000   -0.00000000
     atom    2 type  1   force =     0.00009986    0.00000000   -0.00000000

     Total force =     0.343080     Total SCF correction =     0.000130
     Energy error            =      2.1E-02 Ry
     Gradient error          =      2.4E-01 Ry/Bohr

     number of scf cycles    =   3
     number of bfgs steps    =   2

     energy             old  =      -2.3132122590 Ry
     energy             new  =      -2.2927112809 Ry

     CASE: energy            _new > energy            _old

     new trust radius        =       0.0565913371 bohr
     new conv_thr            =       0.0000000099 Ry


ATOMIC_POSITIONS (angstrom)
H             0.1159748894        0.0000000000        0.0000000000
H             0.8840251106        0.0000000000        0.0000000000



     Writing config-only to output data dir ./.save/
     NEW-OLD atomic charge density approx. for the potential

     negative rho (up, down):  4.828E-02 0.000E+00

     total cpu time spent up to now is       16.2 secs

     Self-consistent Calculation

     iteration #  1     ecut=    25.00 Ry     beta= 0.70
     Davidson diagonalization with overlap

---- Real-time Memory Report at c_bands before calling an iterative solver
           369 MiB given to the printing process from OS
             0 MiB allocation reported by mallinfo(arena+hblkhd)
           298 MiB available memory on the node where the printing process lives
------------------
     ethr =  1.00E-06,  avg # of iterations =  8.0

     negative rho (up, down):  4.430E-02 0.000E+00

     total cpu time spent up to now is       17.3 secs

     total energy              =      -2.31716520 Ry
     estimated scf accuracy    <       0.00554566 Ry

     iteration #  2     ecut=    25.00 Ry     beta= 0.70
     Davidson diagonalization with overlap

---- Real-time Memory Report at c_bands before calling an iterative solver
           369 MiB given to the printing process from OS
             0 MiB allocation reported by mallinfo(arena+hblkhd)
           173 MiB available memory on the node where the printing process lives
------------------
     ethr =  2.77E-04,  avg # of iterations =  2.0

     negative rho (up, down):  4.409E-02 0.000E+00

     total cpu time spent up to now is       18.0 secs

     total energy              =      -2.31797885 Ry
     estimated scf accuracy    <       0.00005774 Ry

     iteration #  3     ecut=    25.00 Ry     beta= 0.70
     Davidson diagonalization with overlap

---- Real-time Memory Report at c_bands before calling an iterative solver
           369 MiB given to the printing process from OS
             0 MiB allocation reported by mallinfo(arena+hblkhd)
           159 MiB available memory on the node where the printing process lives
------------------
     ethr =  2.89E-06,  avg # of iterations =  4.0

     negative rho (up, down):  4.412E-02 0.000E+00

     total cpu time spent up to now is       18.8 secs

     total energy              =      -2.31799090 Ry
     estimated scf accuracy    <       0.00000371 Ry

     iteration #  4     ecut=    25.00 Ry     beta= 0.70
     Davidson diagonalization with overlap

---- Real-time Memory Report at c_bands before calling an iterative solver
           369 MiB given to the printing process from OS
             0 MiB allocation reported by mallinfo(arena+hblkhd)
           145 MiB available memory on the node where the printing process lives
------------------
     ethr =  1.85E-07,  avg # of iterations =  2.0

     negative rho (up, down):  4.413E-02 0.000E+00

     total cpu time spent up to now is       19.6 secs

     total energy              =      -2.31798451 Ry
     estimated scf accuracy    <       0.00000004 Ry

     iteration #  5     ecut=    25.00 Ry     beta= 0.70
     Davidson diagonalization with overlap

---- Real-time Memory Report at c_bands before calling an iterative solver
           369 MiB given to the printing process from OS
             0 MiB allocation reported by mallinfo(arena+hblkhd)
           131 MiB available memory on the node where the printing process lives
------------------
     ethr =  1.80E-09,  avg # of iterations =  2.0

     negative rho (up, down):  4.413E-02 0.000E+00

     total cpu time spent up to now is       20.3 secs

     End of self-consistent calculation

          k =-0.5000-0.5000-0.5000 ( 57016 PWs)   bands (ev):

   -10.2966  -1.0851

     occupation numbers 
     1.0000   0.0000

     highest occupied, lowest unoccupied level (ev):   -10.2966   -1.0851

!    total energy              =      -2.31798504 Ry
     estimated scf accuracy    <          2.9E-10 Ry

     The total energy is the sum of the following terms:
     one-electron contribution =      -4.16080686 Ry
     hartree contribution      =       2.21502999 Ry
     xc contribution           =      -1.37220530 Ry
     ewald contribution        =       0.99999714 Ry

     convergence has been achieved in   5 iterations

     Forces acting on atoms (cartesian axes, Ry/au):

     atom    1 type  1   force =     0.03182490    0.00000000    0.00000000
     atom    2 type  1   force =    -0.03182490    0.00000000    0.00000000
     The non-local contrib.  to forces
     atom    1 type  1   force =     0.10687187    0.00000000    0.00000000
     atom    2 type  1   force =    -0.10633841    0.00000000    0.00000000
     The ionic contribution  to forces
     atom    1 type  1   force =    -0.94895483   -0.00000000   -0.00000000
     atom    2 type  1   force =     0.94895483    0.00000000   -0.00000000
     The local contribution  to forces
     atom    1 type  1   force =     0.87414636    0.00000000    0.00000000
     atom    2 type  1   force =    -0.87410641    0.00000000    0.00000000
     The core correction contribution to forces
     atom    1 type  1   force =     0.00000000    0.00000000    0.00000000
     atom    2 type  1   force =     0.00000000    0.00000000    0.00000000
     The Hubbard contrib.    to forces
     atom    1 type  1   force =     0.00000000    0.00000000    0.00000000
     atom    2 type  1   force =     0.00000000    0.00000000    0.00000000
     The SCF correction term to forces
     atom    1 type  1   force =     0.00002653    0.00000000   -0.00000000
     atom    2 type  1   force =    -0.00006988    0.00000000   -0.00000000

     Total force =     0.045007     Total SCF correction =     0.000075
     Energy error            =      4.8E-03 Ry
     Gradient error          =      3.2E-02 Ry/Bohr

     number of scf cycles    =   4
     number of bfgs steps    =   2

     energy             old  =      -2.3132122590 Ry
     energy             new  =      -2.3179850385 Ry

     CASE: energy            _new < energy            _old

     new trust radius        =       0.0268777530 bohr
     new conv_thr            =       0.0000000032 Ry


ATOMIC_POSITIONS (angstrom)
H             0.1301979838        0.0000000000        0.0000000000
H             0.8698020162        0.0000000000        0.0000000000



     Writing config-only to output data dir ./.save/
     NEW-OLD atomic charge density approx. for the potential

     negative rho (up, down):  4.415E-02 0.000E+00

     total cpu time spent up to now is       21.1 secs

     Self-consistent Calculation

     iteration #  1     ecut=    25.00 Ry     beta= 0.70
     Davidson diagonalization with overlap

---- Real-time Memory Report at c_bands before calling an iterative solver
           369 MiB given to the printing process from OS
             0 MiB allocation reported by mallinfo(arena+hblkhd)
           298 MiB available memory on the node where the printing process lives
------------------
     ethr =  1.00E-06,  avg # of iterations =  3.0

     negative rho (up, down):  4.543E-02 0.000E+00

     total cpu time spent up to now is       22.0 secs

     total energy              =      -2.31763245 Ry
     estimated scf accuracy    <       0.00022860 Ry

     iteration #  2     ecut=    25.00 Ry     beta= 0.70
     Davidson diagonalization with overlap

---- Real-time Memory Report at c_bands before calling an iterative solver
           369 MiB given to the printing process from OS
             0 MiB allocation reported by mallinfo(arena+hblkhd)
           173 MiB available memory on the node where the printing process lives
------------------
     ethr =  1.14E-05,  avg # of iterations =  1.0

     negative rho (up, down):  4.571E-02 0.000E+00

     total cpu time spent up to now is       22.7 secs

     total energy              =      -2.31747863 Ry
     estimated scf accuracy    <       0.00000265 Ry

     iteration #  3     ecut=    25.00 Ry     beta= 0.70
     Davidson diagonalization with overlap

---- Real-time Memory Report at c_bands before calling an iterative solver
           369 MiB given to the printing process from OS
             0 MiB allocation reported by mallinfo(arena+hblkhd)
           159 MiB available memory on the node where the printing process lives
------------------
     ethr =  1.32E-07,  avg # of iterations =  2.0

     negative rho (up, down):  4.576E-02 0.000E+00

     total cpu time spent up to now is       23.5 secs

     total energy              =      -2.31744009 Ry
     estimated scf accuracy    <       0.00000011 Ry

     iteration #  4     ecut=    25.00 Ry     beta= 0.70
     Davidson diagonalization with overlap

---- Real-time Memory Report at c_bands before calling an iterative solver
           369 MiB given to the printing process from OS
             0 MiB allocation reported by mallinfo(arena+hblkhd)
           145 MiB available memory on the node where the printing process lives
------------------
     ethr =  5.65E-09,  avg # of iterations =  2.0

     negative rho (up, down):  4.576E-02 0.000E+00

     total cpu time spent up to now is       24.2 secs

     End of self-consistent calculation

          k =-0.5000-0.5000-0.5000 ( 57016 PWs)   bands (ev):

   -10.4370  -1.1034

     occupation numbers 
     1.0000   0.0000

     highest occupied, lowest unoccupied level (ev):   -10.4370   -1.1034

!    total energy              =      -2.31744247 Ry
     estimated scf accuracy    <          1.1E-09 Ry

     The total energy is the sum of the following terms:
     one-electron contribution =      -4.23353178 Ry
     hartree contribution      =       2.25327482 Ry
     xc contribution           =      -1.39015757 Ry
     ewald contribution        =       1.05297206 Ry

     convergence has been achieved in   4 iterations

     Forces acting on atoms (cartesian axes, Ry/au):

     atom    1 type  1   force =    -0.01306035    0.00000000    0.00000000
     atom    2 type  1   force =     0.01306035    0.00000000    0.00000000
     The non-local contrib.  to forces
     atom    1 type  1   force =     0.10707010    0.00000000    0.00000000
     atom    2 type  1   force =    -0.10654680    0.00000000    0.00000000
     The ionic contribution  to forces
     atom    1 type  1   force =    -1.02340738   -0.00000000   -0.00000000
     atom    2 type  1   force =     1.02340738   -0.00000000   -0.00000000
     The local contribution  to forces
     atom    1 type  1   force =     0.90357824    0.00000000    0.00000000
     atom    2 type  1   force =    -0.90351086    0.00000000    0.00000000
     The core correction contribution to forces
     atom    1 type  1   force =     0.00000000    0.00000000    0.00000000
     atom    2 type  1   force =     0.00000000    0.00000000    0.00000000
     The Hubbard contrib.    to forces
     atom    1 type  1   force =     0.00000000    0.00000000    0.00000000
     atom    2 type  1   force =     0.00000000    0.00000000    0.00000000
     The SCF correction term to forces
     atom    1 type  1   force =     0.00001801    0.00000000   -0.00000000
     atom    2 type  1   force =     0.00002996   -0.00000000   -0.00000000

     Total force =     0.018470     Total SCF correction =     0.000035
     Energy error            =      5.4E-04 Ry
     Gradient error          =      1.3E-02 Ry/Bohr

     number of scf cycles    =   5
     number of bfgs steps    =   3

     energy             old  =      -2.3179850385 Ry
     energy             new  =      -2.3174424696 Ry

     CASE: energy            _new > energy            _old

     new trust radius        =       0.0102029958 bohr
     new conv_thr            =       0.0000000032 Ry


ATOMIC_POSITIONS (angstrom)
H             0.1213740823        0.0000000000        0.0000000000
H             0.8786259177        0.0000000000        0.0000000000



     Writing config-only to output data dir ./.save/
     NEW-OLD atomic charge density approx. for the potential

     negative rho (up, down):  4.571E-02 0.000E+00

     total cpu time spent up to now is       25.0 secs

     Self-consistent Calculation

     iteration #  1     ecut=    25.00 Ry     beta= 0.70
     Davidson diagonalization with overlap

---- Real-time Memory Report at c_bands before calling an iterative solver
           369 MiB given to the printing process from OS
             0 MiB allocation reported by mallinfo(arena+hblkhd)
           298 MiB available memory on the node where the printing process lives
------------------
     ethr =  1.00E-06,  avg # of iterations =  3.0

     negative rho (up, down):  4.496E-02 0.000E+00

     total cpu time spent up to now is       25.9 secs

     total energy              =      -2.31789973 Ry
     estimated scf accuracy    <       0.00008972 Ry

     iteration #  2     ecut=    25.00 Ry     beta= 0.70
     Davidson diagonalization with overlap

---- Real-time Memory Report at c_bands before calling an iterative solver
           369 MiB given to the printing process from OS
             0 MiB allocation reported by mallinfo(arena+hblkhd)
           173 MiB available memory on the node where the printing process lives
------------------
     ethr =  4.49E-06,  avg # of iterations =  1.0

     negative rho (up, down):  4.481E-02 0.000E+00

     total cpu time spent up to now is       26.6 secs

     total energy              =      -2.31802236 Ry
     estimated scf accuracy    <       0.00000103 Ry

     iteration #  3     ecut=    25.00 Ry     beta= 0.70
     Davidson diagonalization with overlap

---- Real-time Memory Report at c_bands before calling an iterative solver
           369 MiB given to the printing process from OS
             0 MiB allocation reported by mallinfo(arena+hblkhd)
           159 MiB available memory on the node where the printing process lives
------------------
     ethr =  5.13E-08,  avg # of iterations =  2.0

     negative rho (up, down):  4.479E-02 0.000E+00

     total cpu time spent up to now is       27.3 secs

     total energy              =      -2.31803853 Ry
     estimated scf accuracy    <       0.00000005 Ry

     iteration #  4     ecut=    25.00 Ry     beta= 0.70
     Davidson diagonalization with overlap

---- Real-time Memory Report at c_bands before calling an iterative solver
           369 MiB given to the printing process from OS
             0 MiB allocation reported by mallinfo(arena+hblkhd)
           145 MiB available memory on the node where the printing process lives
------------------
     ethr =  2.63E-09,  avg # of iterations =  2.0

     negative rho (up, down):  4.479E-02 0.000E+00

     total cpu time spent up to now is       28.1 secs

     End of self-consistent calculation

          k =-0.5000-0.5000-0.5000 ( 57016 PWs)   bands (ev):

   -10.3489  -1.0987

     occupation numbers 
     1.0000   0.0000

     highest occupied, lowest unoccupied level (ev):   -10.3489   -1.0987

!    total energy              =      -2.31804014 Ry
     estimated scf accuracy    <          7.5E-10 Ry

     The total energy is the sum of the following terms:
     one-electron contribution =      -4.18815344 Ry
     hartree contribution      =       2.22945072 Ry
     xc contribution           =      -1.37897526 Ry
     ewald contribution        =       1.01963784 Ry

     convergence has been achieved in   4 iterations

     Forces acting on atoms (cartesian axes, Ry/au):

     atom    1 type  1   force =     0.01570102    0.00000000    0.00000000
     atom    2 type  1   force =    -0.01570102    0.00000000    0.00000000
     The non-local contrib.  to forces
     atom    1 type  1   force =     0.10693265    0.00000000    0.00000000
     atom    2 type  1   force =    -0.10644737    0.00000000    0.00000000
     The ionic contribution  to forces
     atom    1 type  1   force =    -0.97623141   -0.00000000   -0.00000000
     atom    2 type  1   force =     0.97623141   -0.00000000   -0.00000000
     The local contribution  to forces
     atom    1 type  1   force =     0.88527807    0.00000000    0.00000000
     atom    2 type  1   force =    -0.88520439    0.00000000    0.00000000
     The core correction contribution to forces
     atom    1 type  1   force =     0.00000000    0.00000000    0.00000000
     atom    2 type  1   force =     0.00000000    0.00000000    0.00000000
     The Hubbard contrib.    to forces
     atom    1 type  1   force =     0.00000000    0.00000000    0.00000000
     atom    2 type  1   force =     0.00000000    0.00000000    0.00000000
     The SCF correction term to forces
     atom    1 type  1   force =     0.00000077    0.00000000    0.00000000
     atom    2 type  1   force =    -0.00000161    0.00000000    0.00000000

     Total force =     0.022205     Total SCF correction =     0.000002
     Energy error            =      5.5E-05 Ry
     Gradient error          =      1.6E-02 Ry/Bohr

     number of scf cycles    =   6
     number of bfgs steps    =   3

     energy             old  =      -2.3179850385 Ry
     energy             new  =      -2.3180401430 Ry

     CASE: energy            _new < energy            _old

     new trust radius        =       0.0099354075 bohr
     new conv_thr            =            1.0E-10 Ry


ATOMIC_POSITIONS (angstrom)
H             0.1266316735        0.0000000000        0.0000000000
H             0.8733683265        0.0000000000        0.0000000000



     Writing config-only to output data dir ./.save/
     NEW-OLD atomic charge density approx. for the potential

     negative rho (up, down):  4.481E-02 0.000E+00

     total cpu time spent up to now is       28.9 secs

     Self-consistent Calculation

     iteration #  1     ecut=    25.00 Ry     beta= 0.70
     Davidson diagonalization with overlap

---- Real-time Memory Report at c_bands before calling an iterative solver
           369 MiB given to the printing process from OS
             0 MiB allocation reported by mallinfo(arena+hblkhd)
           298 MiB available memory on the node where the printing process lives
------------------
     ethr =  1.00E-06,  avg # of iterations =  3.0

     negative rho (up, down):  4.527E-02 0.000E+00

     total cpu time spent up to now is       29.7 secs

     total energy              =      -2.31783603 Ry
     estimated scf accuracy    <       0.00003142 Ry

     iteration #  2     ecut=    25.00 Ry     beta= 0.70
     Davidson diagonalization with overlap

---- Real-time Memory Report at c_bands before calling an iterative solver
           369 MiB given to the printing process from OS
             0 MiB allocation reported by mallinfo(arena+hblkhd)
           173 MiB available memory on the node where the printing process lives
------------------
     ethr =  1.57E-06,  avg # of iterations =  1.0

     negative rho (up, down):  4.537E-02 0.000E+00

     total cpu time spent up to now is       30.4 secs

     total energy              =      -2.31778263 Ry
     estimated scf accuracy    <       0.00000039 Ry

     iteration #  3     ecut=    25.00 Ry     beta= 0.70
     Davidson diagonalization with overlap

---- Real-time Memory Report at c_bands before calling an iterative solver
           369 MiB given to the printing process from OS
             0 MiB allocation reported by mallinfo(arena+hblkhd)
           159 MiB available memory on the node where the printing process lives
------------------
     ethr =  1.94E-08,  avg # of iterations =  2.0

     negative rho (up, down):  4.539E-02 0.000E+00

     total cpu time spent up to now is       31.2 secs

     total energy              =      -2.31777113 Ry
     estimated scf accuracy    <       0.00000002 Ry

     iteration #  4     ecut=    25.00 Ry     beta= 0.70
     Davidson diagonalization with overlap

---- Real-time Memory Report at c_bands before calling an iterative solver
           369 MiB given to the printing process from OS
             0 MiB allocation reported by mallinfo(arena+hblkhd)
           146 MiB available memory on the node where the printing process lives
------------------
     ethr =  9.67E-10,  avg # of iterations =  3.0

     negative rho (up, down):  4.539E-02 0.000E+00

     total cpu time spent up to now is       32.0 secs

     total energy              =      -2.31776916 Ry
     estimated scf accuracy    <          2.0E-09 Ry

     iteration #  5     ecut=    25.00 Ry     beta= 0.70
     Davidson diagonalization with overlap

---- Real-time Memory Report at c_bands before calling an iterative solver
           369 MiB given to the printing process from OS
             0 MiB allocation reported by mallinfo(arena+hblkhd)
           132 MiB available memory on the node where the printing process lives
------------------
     ethr =  1.02E-10,  avg # of iterations =  3.0

     negative rho (up, down):  4.539E-02 0.000E+00

     total cpu time spent up to now is       32.8 secs

     End of self-consistent calculation

          k =-0.5000-0.5000-0.5000 ( 57016 PWs)   bands (ev):

   -10.4010  -1.0987

     occupation numbers 
     1.0000   0.0000

     highest occupied, lowest unoccupied level (ev):   -10.4010   -1.0987

!    total energy              =      -2.31777087 Ry
     estimated scf accuracy    <          7.0E-11 Ry

     The total energy is the sum of the following terms:
     one-electron contribution =      -4.21507621 Ry
     hartree contribution      =       2.24358312 Ry
     xc contribution           =      -1.38558748 Ry
     ewald contribution        =       1.03930970 Ry

     convergence has been achieved in   5 iterations

     Forces acting on atoms (cartesian axes, Ry/au):

     atom    1 type  1   force =    -0.00100746    0.00000000    0.00000000
     atom    2 type  1   force =     0.00100746    0.00000000    0.00000000
     The non-local contrib.  to forces
     atom    1 type  1   force =     0.10677620    0.00000000    0.00000000
     atom    2 type  1   force =    -0.10674282    0.00000000    0.00000000
     The ionic contribution  to forces
     atom    1 type  1   force =    -1.00393758    0.00000000   -0.00000000
     atom    2 type  1   force =     1.00393758    0.00000000   -0.00000000
     The local contribution  to forces
     atom    1 type  1   force =     0.89615868    0.00000000    0.00000000
     atom    2 type  1   force =    -0.89607930    0.00000000    0.00000000
     The core correction contribution to forces
     atom    1 type  1   force =     0.00000000    0.00000000    0.00000000
     atom    2 type  1   force =     0.00000000    0.00000000    0.00000000
     The Hubbard contrib.    to forces
     atom    1 type  1   force =     0.00000000    0.00000000    0.00000000
     atom    2 type  1   force =     0.00000000    0.00000000    0.00000000
     The SCF correction term to forces
     atom    1 type  1   force =    -0.00001008   -0.00000000    0.00000000
     atom    2 type  1   force =    -0.00011334    0.00000000    0.00000000

     Total force =     0.001425     Total SCF correction =     0.000114
     Energy error            =      2.7E-04 Ry
     Gradient error          =      1.0E-03 Ry/Bohr

     number of scf cycles    =   7
     number of bfgs steps    =   4

     energy             old  =      -2.3180401430 Ry
     energy             new  =      -2.3177708708 Ry

     CASE: energy            _new > energy            _old

     new trust radius        =       0.0026664016 bohr
     new conv_thr            =            1.0E-10 Ry


ATOMIC_POSITIONS (angstrom)
H             0.1227850812        0.0000000000        0.0000000000
H             0.8772149188        0.0000000000        0.0000000000



     Writing config-only to output data dir ./.save/
     NEW-OLD atomic charge density approx. for the potential

     negative rho (up, down):  4.536E-02 0.000E+00

     total cpu time spent up to now is       33.6 secs

     Self-consistent Calculation

     iteration #  1     ecut=    25.00 Ry     beta= 0.70
     Davidson diagonalization with overlap

---- Real-time Memory Report at c_bands before calling an iterative solver
           369 MiB given to the printing process from OS
             0 MiB allocation reported by mallinfo(arena+hblkhd)
           299 MiB available memory on the node where the printing process lives
------------------
     ethr =  1.00E-06,  avg # of iterations =  3.0

     negative rho (up, down):  4.503E-02 0.000E+00

     total cpu time spent up to now is       34.4 secs

     total energy              =      -2.31794236 Ry
     estimated scf accuracy    <       0.00001694 Ry

     iteration #  2     ecut=    25.00 Ry     beta= 0.70
     Davidson diagonalization with overlap

---- Real-time Memory Report at c_bands before calling an iterative solver
           369 MiB given to the printing process from OS
             0 MiB allocation reported by mallinfo(arena+hblkhd)
           174 MiB available memory on the node where the printing process lives
------------------
     ethr =  8.47E-07,  avg # of iterations =  2.0

     negative rho (up, down):  4.497E-02 0.000E+00

     total cpu time spent up to now is       35.2 secs

     total energy              =      -2.31798290 Ry
     estimated scf accuracy    <       0.00000018 Ry

     iteration #  3     ecut=    25.00 Ry     beta= 0.70
     Davidson diagonalization with overlap

---- Real-time Memory Report at c_bands before calling an iterative solver
           369 MiB given to the printing process from OS
             0 MiB allocation reported by mallinfo(arena+hblkhd)
           160 MiB available memory on the node where the printing process lives
------------------
     ethr =  9.10E-09,  avg # of iterations =  2.0

     negative rho (up, down):  4.496E-02 0.000E+00

     total cpu time spent up to now is       36.0 secs

     total energy              =      -2.31798961 Ry
     estimated scf accuracy    <          8.6E-09 Ry

     iteration #  4     ecut=    25.00 Ry     beta= 0.70
     Davidson diagonalization with overlap

---- Real-time Memory Report at c_bands before calling an iterative solver
           369 MiB given to the printing process from OS
             0 MiB allocation reported by mallinfo(arena+hblkhd)
           146 MiB available memory on the node where the printing process lives
------------------
     ethr =  4.29E-10,  avg # of iterations =  3.0

     negative rho (up, down):  4.496E-02 0.000E+00

     total cpu time spent up to now is       36.8 secs

     total energy              =      -2.31799227 Ry
     estimated scf accuracy    <          6.5E-10 Ry

     iteration #  5     ecut=    25.00 Ry     beta= 0.70
     Davidson diagonalization with overlap

---- Real-time Memory Report at c_bands before calling an iterative solver
           369 MiB given to the printing process from OS
             0 MiB allocation reported by mallinfo(arena+hblkhd)
           132 MiB available memory on the node where the printing process lives
------------------
     ethr =  3.23E-11,  avg # of iterations =  3.0

     negative rho (up, down):  4.496E-02 0.000E+00

     total cpu time spent up to now is       37.6 secs

     End of self-consistent calculation

          k =-0.5000-0.5000-0.5000 ( 57016 PWs)   bands (ev):

   -10.3630  -1.0996

     occupation numbers 
     1.0000   0.0000

     highest occupied, lowest unoccupied level (ev):   -10.3630   -1.0996

!    total energy              =      -2.31799093 Ry
     estimated scf accuracy    <          2.8E-11 Ry

     The total energy is the sum of the following terms:
     one-electron contribution =      -4.19536280 Ry
     hartree contribution      =       2.23325872 Ry
     xc contribution           =      -1.38075022 Ry
     ewald contribution        =       1.02486338 Ry

     convergence has been achieved in   5 iterations

     Forces acting on atoms (cartesian axes, Ry/au):

     atom    1 type  1   force =     0.01135018    0.00000000    0.00000000
     atom    2 type  1   force =    -0.01135018    0.00000000    0.00000000
     The non-local contrib.  to forces
     atom    1 type  1   force =     0.10685963    0.00000000    0.00000000
     atom    2 type  1   force =    -0.10660300    0.00000000    0.00000000
     The ionic contribution  to forces
     atom    1 type  1   force =    -0.98355343    0.00000000   -0.00000000
     atom    2 type  1   force =     0.98355343   -0.00000000   -0.00000000
     The local contribution  to forces
     atom    1 type  1   force =     0.88820366    0.00000000    0.00000000
     atom    2 type  1   force =    -0.88812563    0.00000000    0.00000000
     The core correction contribution to forces
     atom    1 type  1   force =     0.00000000    0.00000000    0.00000000
     atom    2 type  1   force =     0.00000000    0.00000000    0.00000000
     The Hubbard contrib.    to forces
     atom    1 type  1   force =     0.00000000    0.00000000    0.00000000
     atom    2 type  1   force =     0.00000000    0.00000000    0.00000000
     The SCF correction term to forces
     atom    1 type  1   force =     0.00000713    0.00000000    0.00000000
     atom    2 type  1   force =    -0.00000817    0.00000000    0.00000000

     Total force =     0.016052     Total SCF correction =     0.000011
     Energy error            =      4.9E-05 Ry
     Gradient error          =      1.1E-02 Ry/Bohr

     number of scf cycles    =   8
     number of bfgs steps    =   4

     energy             old  =      -2.3180401430 Ry
     energy             new  =      -2.3179909305 Ry

     CASE: energy            _new > energy            _old

     new trust radius        =       0.0008396796 bohr
     new conv_thr            =            1.0E-10 Ry


ATOMIC_POSITIONS (angstrom)
H             0.1218184216        0.0000000000        0.0000000000
H             0.8781815784        0.0000000000        0.0000000000



     Writing config-only to output data dir ./.save/
     NEW-OLD atomic charge density approx. for the potential

     negative rho (up, down):  4.495E-02 0.000E+00

     total cpu time spent up to now is       38.4 secs

     Self-consistent Calculation

     iteration #  1     ecut=    25.00 Ry     beta= 0.70
     Davidson diagonalization with overlap

---- Real-time Memory Report at c_bands before calling an iterative solver
           369 MiB given to the printing process from OS
             0 MiB allocation reported by mallinfo(arena+hblkhd)
           299 MiB available memory on the node where the printing process lives
------------------
     ethr =  1.00E-06,  avg # of iterations =  2.0

     Threshold (ethr) on eigenvalues was too large:
     Diagonalizing with lowered threshold

     Davidson diagonalization with overlap

---- Real-time Memory Report at c_bands before calling an iterative solver
           369 MiB given to the printing process from OS
             0 MiB allocation reported by mallinfo(arena+hblkhd)
           299 MiB available memory on the node where the printing process lives
------------------
     ethr =  4.79E-08,  avg # of iterations =  1.0

     negative rho (up, down):  4.487E-02 0.000E+00

     total cpu time spent up to now is       39.4 secs

     total energy              =      -2.31801356 Ry
     estimated scf accuracy    <       0.00000102 Ry

     iteration #  2     ecut=    25.00 Ry     beta= 0.70
     Davidson diagonalization with overlap

---- Real-time Memory Report at c_bands before calling an iterative solver
           369 MiB given to the printing process from OS
             0 MiB allocation reported by mallinfo(arena+hblkhd)
           174 MiB available memory on the node where the printing process lives
------------------
     ethr =  5.12E-08,  avg # of iterations =  2.0

     negative rho (up, down):  4.485E-02 0.000E+00

     total cpu time spent up to now is       40.2 secs

     total energy              =      -2.31802250 Ry
     estimated scf accuracy    <       0.00000001 Ry

     iteration #  3     ecut=    25.00 Ry     beta= 0.70
     Davidson diagonalization with overlap

---- Real-time Memory Report at c_bands before calling an iterative solver
           369 MiB given to the printing process from OS
             0 MiB allocation reported by mallinfo(arena+hblkhd)
           160 MiB available memory on the node where the printing process lives
------------------
     ethr =  6.23E-10,  avg # of iterations =  2.0

     negative rho (up, down):  4.485E-02 0.000E+00

     total cpu time spent up to now is       40.9 secs

     total energy              =      -2.31802410 Ry
     estimated scf accuracy    <          6.2E-10 Ry

     iteration #  4     ecut=    25.00 Ry     beta= 0.70
     Davidson diagonalization with overlap

---- Real-time Memory Report at c_bands before calling an iterative solver
           369 MiB given to the printing process from OS
             0 MiB allocation reported by mallinfo(arena+hblkhd)
           146 MiB available memory on the node where the printing process lives
------------------
     ethr =  3.08E-11,  avg # of iterations =  3.0

     negative rho (up, down):  4.485E-02 0.000E+00

     total cpu time spent up to now is       41.7 secs

     total energy              =      -2.31802417 Ry
     estimated scf accuracy    <          3.6E-10 Ry

     iteration #  5     ecut=    25.00 Ry     beta= 0.70
     Davidson diagonalization with overlap

---- Real-time Memory Report at c_bands before calling an iterative solver
           369 MiB given to the printing process from OS
             0 MiB allocation reported by mallinfo(arena+hblkhd)
           132 MiB available memory on the node where the printing process lives
------------------
     ethr =  1.81E-11,  avg # of iterations =  1.0

     negative rho (up, down):  4.485E-02 0.000E+00

     total cpu time spent up to now is       42.5 secs

     total energy              =      -2.31802607 Ry
     estimated scf accuracy    <          3.5E-10 Ry

     iteration #  6     ecut=    25.00 Ry     beta= 0.70
     Davidson diagonalization with overlap

---- Real-time Memory Report at c_bands before calling an iterative solver
           370 MiB given to the printing process from OS
             0 MiB allocation reported by mallinfo(arena+hblkhd)
           118 MiB available memory on the node where the printing process lives
------------------
     ethr =  1.74E-11,  avg # of iterations =  4.0

     negative rho (up, down):  4.485E-02 0.000E+00

     total cpu time spent up to now is       43.2 secs

     End of self-consistent calculation

          k =-0.5000-0.5000-0.5000 ( 57016 PWs)   bands (ev):

   -10.3532  -1.0984

     occupation numbers 
     1.0000   0.0000

     highest occupied, lowest unoccupied level (ev):   -10.3532   -1.0984

!    total energy              =      -2.31802413 Ry
     estimated scf accuracy    <          5.4E-11 Ry

     The total energy is the sum of the following terms:
     one-electron contribution =      -4.19046135 Ry
     hartree contribution      =       2.23072326 Ry
     xc contribution           =      -1.37956525 Ry
     ewald contribution        =       1.02127921 Ry

     convergence has been achieved in   6 iterations

     Forces acting on atoms (cartesian axes, Ry/au):

     atom    1 type  1   force =     0.01440282    0.00000000    0.00000000
     atom    2 type  1   force =    -0.01440282    0.00000000    0.00000000
     The non-local contrib.  to forces
     atom    1 type  1   force =     0.10699109    0.00000000    0.00000000
     atom    2 type  1   force =    -0.10649263    0.00000000    0.00000000
     The ionic contribution  to forces
     atom    1 type  1   force =    -0.97852836   -0.00000000   -0.00000000
     atom    2 type  1   force =     0.97852836   -0.00000000   -0.00000000
     The local contribution  to forces
     atom    1 type  1   force =     0.88621956    0.00000000    0.00000000
     atom    2 type  1   force =    -0.88615076    0.00000000    0.00000000
     The core correction contribution to forces
     atom    1 type  1   force =     0.00000000    0.00000000    0.00000000
     atom    2 type  1   force =     0.00000000    0.00000000    0.00000000
     The Hubbard contrib.    to forces
     atom    1 type  1   force =     0.00000000    0.00000000    0.00000000
     atom    2 type  1   force =     0.00000000    0.00000000    0.00000000
     The SCF correction term to forces
     atom    1 type  1   force =     0.00000485    0.00000000    0.00000000
     atom    2 type  1   force =    -0.00000346    0.00000000   -0.00000000

     Total force =     0.020369     Total SCF correction =     0.000006
     Energy error            =      1.6E-05 Ry
     Gradient error          =      1.4E-02 Ry/Bohr

     number of scf cycles    =   9
     number of bfgs steps    =   4

     energy             old  =      -2.3180401430 Ry
     energy             new  =      -2.3180241299 Ry

     CASE: energy            _new > energy            _old

     new trust radius        =       0.0002612080 bohr
     new conv_thr            =            1.0E-10 Ry


ATOMIC_POSITIONS (angstrom)
H             0.1215123076        0.0000000000        0.0000000000
H             0.8784876924        0.0000000000        0.0000000000



     Writing config-only to output data dir ./.save/
     NEW-OLD atomic charge density approx. for the potential

     negative rho (up, down):  4.484E-02 0.000E+00

     total cpu time spent up to now is       44.0 secs

     Self-consistent Calculation

     iteration #  1     ecut=    25.00 Ry     beta= 0.70
     Davidson diagonalization with overlap

---- Real-time Memory Report at c_bands before calling an iterative solver
           370 MiB given to the printing process from OS
             0 MiB allocation reported by mallinfo(arena+hblkhd)
           299 MiB available memory on the node where the printing process lives
------------------
     ethr =  1.00E-06,  avg # of iterations =  2.0

     Threshold (ethr) on eigenvalues was too large:
     Diagonalizing with lowered threshold

     Davidson diagonalization with overlap

---- Real-time Memory Report at c_bands before calling an iterative solver
           370 MiB given to the printing process from OS
             0 MiB allocation reported by mallinfo(arena+hblkhd)
           299 MiB available memory on the node where the printing process lives
------------------
     ethr =  5.10E-09,  avg # of iterations =  1.0

     negative rho (up, down):  4.482E-02 0.000E+00

     total cpu time spent up to now is       45.1 secs

     total energy              =      -2.31803125 Ry
     estimated scf accuracy    <       0.00000011 Ry

     iteration #  2     ecut=    25.00 Ry     beta= 0.70
     Davidson diagonalization with overlap

---- Real-time Memory Report at c_bands before calling an iterative solver
           370 MiB given to the printing process from OS
             0 MiB allocation reported by mallinfo(arena+hblkhd)
           174 MiB available memory on the node where the printing process lives
------------------
     ethr =  5.61E-09,  avg # of iterations =  2.0

     negative rho (up, down):  4.481E-02 0.000E+00

     total cpu time spent up to now is       45.8 secs

     total energy              =      -2.31803327 Ry
     estimated scf accuracy    <          1.0E-09 Ry

     iteration #  3     ecut=    25.00 Ry     beta= 0.70
     Davidson diagonalization with overlap

---- Real-time Memory Report at c_bands before calling an iterative solver
           370 MiB given to the printing process from OS
             0 MiB allocation reported by mallinfo(arena+hblkhd)
           160 MiB available memory on the node where the printing process lives
------------------
     ethr =  5.16E-11,  avg # of iterations =  2.0

     negative rho (up, down):  4.481E-02 0.000E+00

     total cpu time spent up to now is       46.5 secs

     End of self-consistent calculation

          k =-0.5000-0.5000-0.5000 ( 57016 PWs)   bands (ev):

   -10.3501  -1.0975

     occupation numbers 
     1.0000   0.0000

     highest occupied, lowest unoccupied level (ev):   -10.3501   -1.0975

!    total energy              =      -2.31803320 Ry
     estimated scf accuracy    <          8.3E-11 Ry

     The total energy is the sum of the following terms:
     one-electron contribution =      -4.18890475 Ry
     hartree contribution      =       2.22990859 Ry
     xc contribution           =      -1.37918506 Ry
     ewald contribution        =       1.02014802 Ry

     convergence has been achieved in   3 iterations

     Forces acting on atoms (cartesian axes, Ry/au):

     atom    1 type  1   force =     0.01531895    0.00000000    0.00000000
     atom    2 type  1   force =    -0.01531895    0.00000000    0.00000000
     The non-local contrib.  to forces
     atom    1 type  1   force =     0.10696727    0.00000000    0.00000000
     atom    2 type  1   force =    -0.10643939    0.00000000    0.00000000
     The ionic contribution  to forces
     atom    1 type  1   force =    -0.97694508   -0.00000000   -0.00000000
     atom    2 type  1   force =     0.97694508   -0.00000000   -0.00000000
     The local contribution  to forces
     atom    1 type  1   force =     0.88558466    0.00000000    0.00000000
     atom    2 type  1   force =    -0.88552371    0.00000000    0.00000000
     The core correction contribution to forces
     atom    1 type  1   force =     0.00000000    0.00000000    0.00000000
     atom    2 type  1   force =     0.00000000    0.00000000    0.00000000
     The Hubbard contrib.    to forces
     atom    1 type  1   force =     0.00000000    0.00000000    0.00000000
     atom    2 type  1   force =     0.00000000    0.00000000    0.00000000
     The SCF correction term to forces
     atom    1 type  1   force =     0.00001255    0.00000000    0.00000000
     atom    2 type  1   force =    -0.00000047   -0.00000000    0.00000000

     Total force =     0.021664     Total SCF correction =     0.000013
     Energy error            =      6.9E-06 Ry
     Gradient error          =      1.5E-02 Ry/Bohr

     number of scf cycles    =  10
     number of bfgs steps    =   4

     energy             old  =      -2.3180401430 Ry
     energy             new  =      -2.3180332026 Ry

     CASE: energy            _new > energy            _old

     new trust radius        =       0.0000707445 bohr

     trust_radius < trust_radius_min

     resetting bfgs history

     new conv_thr            =            1.0E-10 Ry


ATOMIC_POSITIONS (angstrom)
H             0.1296827019        0.0000000000        0.0000000000
H             0.8703172981        0.0000000000        0.0000000000



     Writing config-only to output data dir ./.save/
     NEW-OLD atomic charge density approx. for the potential

     negative rho (up, down):  4.481E-02 0.000E+00

     total cpu time spent up to now is       47.3 secs

     Self-consistent Calculation

     iteration #  1     ecut=    25.00 Ry     beta= 0.70
     Davidson diagonalization with overlap

---- Real-time Memory Report at c_bands before calling an iterative solver
           370 MiB given to the printing process from OS
             0 MiB allocation reported by mallinfo(arena+hblkhd)
           299 MiB available memory on the node where the printing process lives
------------------
     ethr =  1.00E-06,  avg # of iterations =  3.0

     negative rho (up, down):  4.552E-02 0.000E+00

     total cpu time spent up to now is       48.2 secs

     total energy              =      -2.31760464 Ry
     estimated scf accuracy    <       0.00007514 Ry

     iteration #  2     ecut=    25.00 Ry     beta= 0.70
     Davidson diagonalization with overlap

---- Real-time Memory Report at c_bands before calling an iterative solver
           370 MiB given to the printing process from OS
             0 MiB allocation reported by mallinfo(arena+hblkhd)
           174 MiB available memory on the node where the printing process lives
------------------
     ethr =  3.76E-06,  avg # of iterations =  1.0

     negative rho (up, down):  4.568E-02 0.000E+00

     total cpu time spent up to now is       48.9 secs

     total energy              =      -2.31751344 Ry
     estimated scf accuracy    <       0.00000096 Ry

     iteration #  3     ecut=    25.00 Ry     beta= 0.70
     Davidson diagonalization with overlap

---- Real-time Memory Report at c_bands before calling an iterative solver
           370 MiB given to the printing process from OS
             0 MiB allocation reported by mallinfo(arena+hblkhd)
           160 MiB available memory on the node where the printing process lives
------------------
     ethr =  4.79E-08,  avg # of iterations =  2.0

     negative rho (up, down):  4.571E-02 0.000E+00

     total cpu time spent up to now is       49.6 secs

     total energy              =      -2.31748896 Ry
     estimated scf accuracy    <       0.00000004 Ry

     iteration #  4     ecut=    25.00 Ry     beta= 0.70
     Davidson diagonalization with overlap

---- Real-time Memory Report at c_bands before calling an iterative solver
           370 MiB given to the printing process from OS
             0 MiB allocation reported by mallinfo(arena+hblkhd)
           146 MiB available memory on the node where the printing process lives
------------------
     ethr =  1.86E-09,  avg # of iterations =  2.0

     negative rho (up, down):  4.571E-02 0.000E+00

     total cpu time spent up to now is       50.4 secs

     total energy              =      -2.31749583 Ry
     estimated scf accuracy    <          2.0E-10 Ry

     iteration #  5     ecut=    25.00 Ry     beta= 0.70
     Davidson diagonalization with overlap

---- Real-time Memory Report at c_bands before calling an iterative solver
           370 MiB given to the printing process from OS
             0 MiB allocation reported by mallinfo(arena+hblkhd)
           132 MiB available memory on the node where the printing process lives
------------------
     ethr =  1.01E-11,  avg # of iterations =  4.0

     negative rho (up, down):  4.571E-02 0.000E+00

     total cpu time spent up to now is       51.3 secs

     total energy              =      -2.31749308 Ry
     estimated scf accuracy    <          4.1E-10 Ry

     iteration #  6     ecut=    25.00 Ry     beta= 0.70
     Davidson diagonalization with overlap

---- Real-time Memory Report at c_bands before calling an iterative solver
           370 MiB given to the printing process from OS
             0 MiB allocation reported by mallinfo(arena+hblkhd)
           118 MiB available memory on the node where the printing process lives
------------------
     ethr =  1.01E-11,  avg # of iterations =  4.0

     negative rho (up, down):  4.571E-02 0.000E+00

     total cpu time spent up to now is       52.1 secs

     total energy              =      -2.31749242 Ry
     estimated scf accuracy    <          1.2E-10 Ry

     iteration #  7     ecut=    25.00 Ry     beta= 0.70
     Davidson diagonalization with overlap

---- Real-time Memory Report at c_bands before calling an iterative solver
           384 MiB given to the printing process from OS
             0 MiB allocation reported by mallinfo(arena+hblkhd)
           104 MiB available memory on the node where the printing process lives
------------------
     ethr =  6.01E-12,  avg # of iterations =  3.0

     negative rho (up, down):  4.571E-02 0.000E+00

     total cpu time spent up to now is       52.9 secs

     End of self-consistent calculation

          k =-0.5000-0.5000-0.5000 ( 57016 PWs)   bands (ev):

   -10.4315  -1.1033

     occupation numbers 
     1.0000   0.0000

     highest occupied, lowest unoccupied level (ev):   -10.4315   -1.1033

!    total energy              =      -2.31749601 Ry
     estimated scf accuracy    <          7.9E-11 Ry

     The total energy is the sum of the following terms:
     one-electron contribution =      -4.23083312 Ry
     hartree contribution      =       2.25182693 Ry
     xc contribution           =      -1.38947158 Ry
     ewald contribution        =       1.05098176 Ry

     convergence has been achieved in   7 iterations

     Forces acting on atoms (cartesian axes, Ry/au):

     atom    1 type  1   force =    -0.01131320    0.00000000    0.00000000
     atom    2 type  1   force =     0.01131320    0.00000000    0.00000000
     The non-local contrib.  to forces
     atom    1 type  1   force =     0.10698396    0.00000000    0.00000000
     atom    2 type  1   force =    -0.10661966    0.00000000    0.00000000
     The ionic contribution  to forces
     atom    1 type  1   force =    -1.02055947   -0.00000000   -0.00000000
     atom    2 type  1   force =     1.02055947    0.00000000   -0.00000000
     The local contribution  to forces
     atom    1 type  1   force =     0.90248096    0.00000000    0.00000000
     atom    2 type  1   force =    -0.90241917    0.00000000    0.00000000
     The core correction contribution to forces
     atom    1 type  1   force =     0.00000000    0.00000000    0.00000000
     atom    2 type  1   force =     0.00000000    0.00000000    0.00000000
     The Hubbard contrib.    to forces
     atom    1 type  1   force =     0.00000000    0.00000000    0.00000000
     atom    2 type  1   force =     0.00000000    0.00000000    0.00000000
     The SCF correction term to forces
     atom    1 type  1   force =    -0.00000660   -0.00000000   -0.00000000
     atom    2 type  1   force =     0.00000461    0.00000000   -0.00000000

     Total force =     0.015999     Total SCF correction =     0.000008
     Energy error            =      5.4E-04 Ry
     Gradient error          =      1.1E-02 Ry/Bohr

     number of scf cycles    =  11
     number of bfgs steps    =   4

     energy             old  =      -2.3180401430 Ry
     energy             new  =      -2.3174960093 Ry

     CASE: energy            _new > energy            _old

     new trust radius        =       0.0037319014 bohr
     new conv_thr            =            1.0E-10 Ry


ATOMIC_POSITIONS (angstrom)
H             0.1233489195        0.0000000000        0.0000000000
H             0.8766510805        0.0000000000        0.0000000000



     Writing config-only to output data dir ./.save/
     NEW-OLD atomic charge density approx. for the potential

     negative rho (up, down):  4.568E-02 0.000E+00

     total cpu time spent up to now is       53.7 secs

     Self-consistent Calculation

     iteration #  1     ecut=    25.00 Ry     beta= 0.70
     Davidson diagonalization with overlap

---- Real-time Memory Report at c_bands before calling an iterative solver
           384 MiB given to the printing process from OS
             0 MiB allocation reported by mallinfo(arena+hblkhd)
           299 MiB available memory on the node where the printing process lives
------------------
     ethr =  1.00E-06,  avg # of iterations =  3.0

     negative rho (up, down):  4.515E-02 0.000E+00

     total cpu time spent up to now is       54.5 secs

     total energy              =      -2.31787612 Ry
[...]
------------------
     ethr =  8.53E-09,  avg # of iterations =  1.0

     negative rho (up, down):  4.483E-02 0.000E+00

     total cpu time spent up to now is      322.2 secs

     total energy              =      -2.31802689 Ry
     estimated scf accuracy    <       0.00000019 Ry

     iteration #  2     ecut=    25.00 Ry     beta= 0.70
     Davidson diagonalization with overlap

---- Real-time Memory Report at c_bands before calling an iterative solver
           426 MiB given to the printing process from OS
             0 MiB allocation reported by mallinfo(arena+hblkhd)
           223 MiB available memory on the node where the printing process lives
------------------
     ethr =  9.39E-09,  avg # of iterations =  2.0

     negative rho (up, down):  4.482E-02 0.000E+00

     total cpu time spent up to now is      323.0 secs

     total energy              =      -2.31803204 Ry
     estimated scf accuracy    <          2.1E-09 Ry

     iteration #  3     ecut=    25.00 Ry     beta= 0.70
     Davidson diagonalization with overlap

---- Real-time Memory Report at c_bands before calling an iterative solver
           426 MiB given to the printing process from OS
             0 MiB allocation reported by mallinfo(arena+hblkhd)
           209 MiB available memory on the node where the printing process lives
------------------
     ethr =  1.05E-10,  avg # of iterations =  2.0

     negative rho (up, down):  4.482E-02 0.000E+00

     total cpu time spent up to now is      323.8 secs

     total energy              =      -2.31803020 Ry
     estimated scf accuracy    <          1.3E-10 Ry

     iteration #  4     ecut=    25.00 Ry     beta= 0.70
     Davidson diagonalization with overlap

---- Real-time Memory Report at c_bands before calling an iterative solver
           426 MiB given to the printing process from OS
             0 MiB allocation reported by mallinfo(arena+hblkhd)
           196 MiB available memory on the node where the printing process lives
------------------
     ethr =  6.29E-12,  avg # of iterations =  4.0

     negative rho (up, down):  4.482E-02 0.000E+00

     total cpu time spent up to now is      324.6 secs

     total energy              =      -2.31803025 Ry
     estimated scf accuracy    <          3.6E-10 Ry

     iteration #  5     ecut=    25.00 Ry     beta= 0.70
     Davidson diagonalization with overlap

---- Real-time Memory Report at c_bands before calling an iterative solver
           426 MiB given to the printing process from OS
             0 MiB allocation reported by mallinfo(arena+hblkhd)
           181 MiB available memory on the node where the printing process lives
------------------
     ethr =  6.29E-12,  avg # of iterations =  1.0

     negative rho (up, down):  4.482E-02 0.000E+00

     total cpu time spent up to now is      325.4 secs

     total energy              =      -2.31803010 Ry
     estimated scf accuracy    <          3.9E-10 Ry

     iteration #  6     ecut=    25.00 Ry     beta= 0.70
     Davidson diagonalization with overlap

---- Real-time Memory Report at c_bands before calling an iterative solver
           426 MiB given to the printing process from OS
             0 MiB allocation reported by mallinfo(arena+hblkhd)
           168 MiB available memory on the node where the printing process lives
------------------
     ethr =  6.29E-12,  avg # of iterations =  2.0

     negative rho (up, down):  4.482E-02 0.000E+00

     total cpu time spent up to now is      326.1 secs

     total energy              =      -2.31803444 Ry
     estimated scf accuracy    <          7.0E-10 Ry

     iteration #  7     ecut=    25.00 Ry     beta= 0.70
     Davidson diagonalization with overlap

---- Real-time Memory Report at c_bands before calling an iterative solver
           426 MiB given to the printing process from OS
             0 MiB allocation reported by mallinfo(arena+hblkhd)
           154 MiB available memory on the node where the printing process lives
------------------
     ethr =  6.29E-12,  avg # of iterations =  3.0

     negative rho (up, down):  4.482E-02 0.000E+00

     total cpu time spent up to now is      327.0 secs

     total energy              =      -2.31803447 Ry
     estimated scf accuracy    <          1.6E-10 Ry

     iteration #  8     ecut=    25.00 Ry     beta= 0.70
     Davidson diagonalization with overlap

---- Real-time Memory Report at c_bands before calling an iterative solver
           426 MiB given to the printing process from OS
             0 MiB allocation reported by mallinfo(arena+hblkhd)
           140 MiB available memory on the node where the printing process lives
------------------
     ethr =  6.29E-12,  avg # of iterations =  1.0

     negative rho (up, down):  4.482E-02 0.000E+00

     total cpu time spent up to now is      327.7 secs

     total energy              =      -2.31803447 Ry
     estimated scf accuracy    <          1.6E-10 Ry

     iteration #  9     ecut=    25.00 Ry     beta= 0.70
     Davidson diagonalization with overlap

---- Real-time Memory Report at c_bands before calling an iterative solver
           426 MiB given to the printing process from OS
             0 MiB allocation reported by mallinfo(arena+hblkhd)
           126 MiB available memory on the node where the printing process lives
------------------
     ethr =  6.29E-12,  avg # of iterations =  1.0

     negative rho (up, down):  4.482E-02 0.000E+00

     total cpu time spent up to now is      328.5 secs

     total energy              =      -2.31803291 Ry
     estimated scf accuracy    <          1.6E-10 Ry

     iteration # 10     ecut=    25.00 Ry     beta= 0.70
     Davidson diagonalization with overlap

---- Real-time Memory Report at c_bands before calling an iterative solver
           426 MiB given to the printing process from OS
             0 MiB allocation reported by mallinfo(arena+hblkhd)
           112 MiB available memory on the node where the printing process lives
------------------
     ethr =  6.29E-12,  avg # of iterations =  4.0

     negative rho (up, down):  4.482E-02 0.000E+00

     total cpu time spent up to now is      329.4 secs

     total energy              =      -2.31803288 Ry
     estimated scf accuracy    <          3.0E-10 Ry

     iteration # 11     ecut=    25.00 Ry     beta= 0.70
     Davidson diagonalization with overlap

---- Real-time Memory Report at c_bands before calling an iterative solver
           426 MiB given to the printing process from OS
             0 MiB allocation reported by mallinfo(arena+hblkhd)
           112 MiB available memory on the node where the printing process lives
------------------
     ethr =  6.29E-12,  avg # of iterations =  1.0

     negative rho (up, down):  4.482E-02 0.000E+00

     total cpu time spent up to now is      330.2 secs

     total energy              =      -2.31803581 Ry
     estimated scf accuracy    <          2.1E-10 Ry

     iteration # 12     ecut=    25.00 Ry     beta= 0.70
     Davidson diagonalization with overlap

---- Real-time Memory Report at c_bands before calling an iterative solver
           426 MiB given to the printing process from OS
             0 MiB allocation reported by mallinfo(arena+hblkhd)
           112 MiB available memory on the node where the printing process lives
------------------
     ethr =  6.29E-12,  avg # of iterations =  4.0

     negative rho (up, down):  4.482E-02 0.000E+00

     total cpu time spent up to now is      331.1 secs

     total energy              =      -2.31803294 Ry
     estimated scf accuracy    <          1.6E-10 Ry

     iteration # 13     ecut=    25.00 Ry     beta= 0.70
     Davidson diagonalization with overlap

---- Real-time Memory Report at c_bands before calling an iterative solver
           426 MiB given to the printing process from OS
             0 MiB allocation reported by mallinfo(arena+hblkhd)
           112 MiB available memory on the node where the printing process lives
------------------
     ethr =  6.29E-12,  avg # of iterations =  4.0

     negative rho (up, down):  4.482E-02 0.000E+00

     total cpu time spent up to now is      331.9 secs

     End of self-consistent calculation

          k =-0.5000-0.5000-0.5000 ( 57016 PWs)   bands (ev):

   -10.3508  -1.0972

     occupation numbers 
     1.0000   0.0000

     highest occupied, lowest unoccupied level (ev):   -10.3508   -1.0972

!    total energy              =      -2.31802998 Ry
     estimated scf accuracy    <          6.0E-11 Ry

     The total energy is the sum of the following terms:
     one-electron contribution =      -4.18923694 Ry
     hartree contribution      =       2.23008307 Ry
     xc contribution           =      -1.37926516 Ry
     ewald contribution        =       1.02038905 Ry

     convergence has been achieved in  13 iterations

     Forces acting on atoms (cartesian axes, Ry/au):

     atom    1 type  1   force =     0.01512938    0.00000000    0.00000000
     atom    2 type  1   force =    -0.01512938    0.00000000    0.00000000
     The non-local contrib.  to forces
     atom    1 type  1   force =     0.10697958    0.00000000    0.00000000
     atom    2 type  1   force =    -0.10645447    0.00000000    0.00000000
     The ionic contribution  to forces
     atom    1 type  1   force =    -0.97728232    0.00000000   -0.00000000
     atom    2 type  1   force =     0.97728232    0.00000000   -0.00000000
     The local contribution  to forces
     atom    1 type  1   force =     0.88571971    0.00000000    0.00000000
     atom    2 type  1   force =    -0.88565868    0.00000000    0.00000000
     The core correction contribution to forces
     atom    1 type  1   force =     0.00000000    0.00000000    0.00000000
     atom    2 type  1   force =     0.00000000    0.00000000    0.00000000
     The Hubbard contrib.    to forces
     atom    1 type  1   force =     0.00000000    0.00000000    0.00000000
     atom    2 type  1   force =     0.00000000    0.00000000    0.00000000
     The SCF correction term to forces
     atom    1 type  1   force =     0.00000549    0.00000000    0.00000000
     atom    2 type  1   force =    -0.00000547   -0.00000000    0.00000000

     Total force =     0.021396     Total SCF correction =     0.000008
     Energy error            =      1.0E-05 Ry
     Gradient error          =      1.5E-02 Ry/Bohr

     number of scf cycles    =  49
     number of bfgs steps    =   4

     energy             old  =      -2.3180401430 Ry
     energy             new  =      -2.3180299832 Ry

     CASE: energy            _new > energy            _old

     new trust radius        =       0.0001044177 bohr
     new conv_thr            =            1.0E-10 Ry


ATOMIC_POSITIONS (angstrom)
H             0.1214293378        0.0000000000        0.0000000000
H             0.8785706622        0.0000000000        0.0000000000



     Writing config-only to output data dir ./.save/
     NEW-OLD atomic charge density approx. for the potential

     negative rho (up, down):  4.482E-02 0.000E+00

     total cpu time spent up to now is      332.7 secs

     Self-consistent Calculation

     iteration #  1     ecut=    25.00 Ry     beta= 0.70
     Davidson diagonalization with overlap

---- Real-time Memory Report at c_bands before calling an iterative solver
           426 MiB given to the printing process from OS
             0 MiB allocation reported by mallinfo(arena+hblkhd)
           349 MiB available memory on the node where the printing process lives
------------------
     ethr =  1.00E-06,  avg # of iterations =  2.0

     Threshold (ethr) on eigenvalues was too large:
     Diagonalizing with lowered threshold

     Davidson diagonalization with overlap

---- Real-time Memory Report at c_bands before calling an iterative solver
           426 MiB given to the printing process from OS
             0 MiB allocation reported by mallinfo(arena+hblkhd)
           349 MiB available memory on the node where the printing process lives
------------------
     ethr =  1.24E-09,  avg # of iterations =  1.0

     negative rho (up, down):  4.480E-02 0.000E+00

     total cpu time spent up to now is      333.7 secs

     total energy              =      -2.31803366 Ry
     estimated scf accuracy    <       0.00000003 Ry

     iteration #  2     ecut=    25.00 Ry     beta= 0.70
     Davidson diagonalization with overlap

---- Real-time Memory Report at c_bands before calling an iterative solver
           426 MiB given to the printing process from OS
             0 MiB allocation reported by mallinfo(arena+hblkhd)
           224 MiB available memory on the node where the printing process lives
------------------
     ethr =  1.43E-09,  avg # of iterations =  2.0

     negative rho (up, down):  4.480E-02 0.000E+00

     total cpu time spent up to now is      334.5 secs

     total energy              =      -2.31803549 Ry
     estimated scf accuracy    <          2.4E-10 Ry

     iteration #  3     ecut=    25.00 Ry     beta= 0.70
     Davidson diagonalization with overlap

---- Real-time Memory Report at c_bands before calling an iterative solver
           426 MiB given to the printing process from OS
             0 MiB allocation reported by mallinfo(arena+hblkhd)
           210 MiB available memory on the node where the printing process lives
------------------
     ethr =  1.18E-11,  avg # of iterations =  2.0

     negative rho (up, down):  4.480E-02 0.000E+00

     total cpu time spent up to now is      335.1 secs

     End of self-consistent calculation

          k =-0.5000-0.5000-0.5000 ( 57016 PWs)   bands (ev):

   -10.3493  -1.0981

     occupation numbers 
     1.0000   0.0000

     highest occupied, lowest unoccupied level (ev):   -10.3493   -1.0981

!    total energy              =      -2.31803336 Ry
     estimated scf accuracy    <          2.9E-11 Ry

     The total energy is the sum of the following terms:
     one-electron contribution =      -4.18848154 Ry
     hartree contribution      =       2.22968534 Ry
     xc contribution           =      -1.37907890 Ry
     ewald contribution        =       1.01984174 Ry

     convergence has been achieved in   3 iterations

     Forces acting on atoms (cartesian axes, Ry/au):

     atom    1 type  1   force =     0.01556199    0.00000000    0.00000000
     atom    2 type  1   force =    -0.01556199    0.00000000    0.00000000
     The non-local contrib.  to forces
     atom    1 type  1   force =     0.10693695    0.00000000    0.00000000
     atom    2 type  1   force =    -0.10644091    0.00000000    0.00000000
     The ionic contribution  to forces
     atom    1 type  1   force =    -0.97651660    0.00000000   -0.00000000
     atom    2 type  1   force =     0.97651660   -0.00000000   -0.00000000
     The local contribution  to forces
     atom    1 type  1   force =     0.88541395    0.00000000    0.00000000
     atom    2 type  1   force =    -0.88535109    0.00000000    0.00000000
     The core correction contribution to forces
     atom    1 type  1   force =     0.00000000    0.00000000    0.00000000
     atom    2 type  1   force =     0.00000000    0.00000000    0.00000000
     The Hubbard contrib.    to forces
     atom    1 type  1   force =     0.00000000    0.00000000    0.00000000
     atom    2 type  1   force =     0.00000000    0.00000000    0.00000000
     The SCF correction term to forces
     atom    1 type  1   force =     0.00000838   -0.00000000   -0.00000000
     atom    2 type  1   force =    -0.00000590   -0.00000000   -0.00000000

     Total force =     0.022008     Total SCF correction =     0.000010
     Energy error            =      6.8E-06 Ry
     Gradient error          =      1.6E-02 Ry/Bohr

     number of scf cycles    =  50
     number of bfgs steps    =   4

     energy             old  =      -2.3180401430 Ry
     energy             new  =      -2.3180333569 Ry

     CASE: energy            _new > energy            _old

     new trust radius        =       0.0000170083 bohr

     trust_radius < trust_radius_min

     resetting bfgs history


     The maximum number of steps has been reached.

     End of BFGS Geometry Optimization

ATOMIC_POSITIONS (angstrom)
H             0.1296827019        0.0000000000        0.0000000000
H             0.8703172981        0.0000000000        0.0000000000



     Writing config-only to output data dir ./.save/
     NEW-OLD atomic charge density approx. for the potential

     negative rho (up, down):  4.480E-02 0.000E+00

     Writing all to output data dir ./.save/

     init_run     :      0.74s CPU      0.77s WALL (       1 calls)
     electrons    :    294.32s CPU    296.50s WALL (      50 calls)
     update_pot   :     24.62s CPU     25.23s WALL (      50 calls)
     forces       :      9.67s CPU      9.87s WALL (      50 calls)

     Called by init_run:
     wfcinit      :      0.07s CPU      0.07s WALL (       1 calls)
     wfcinit:atom :      0.00s CPU      0.00s WALL (       1 calls)
     wfcinit:wfcr :      0.06s CPU      0.06s WALL (       1 calls)
     potinit      :      0.42s CPU      0.44s WALL (       1 calls)
     hinit0       :      0.04s CPU      0.04s WALL (       1 calls)

     Called by electrons:
     c_bands      :     68.44s CPU     68.60s WALL (     385 calls)
     sum_band     :     39.21s CPU     39.52s WALL (     385 calls)
     v_of_rho     :    168.35s CPU    169.12s WALL (     410 calls)
     v_h          :     10.41s CPU     10.43s WALL (     410 calls)
     v_xc         :    157.95s CPU    158.69s WALL (     410 calls)
     newd         :     13.06s CPU     13.09s WALL (     410 calls)
     mix_rho      :     22.76s CPU     23.65s WALL (     385 calls)

     Called by c_bands:
     init_us_2    :      1.17s CPU      1.18s WALL (     771 calls)
     init_us_2:cp :      1.17s CPU      1.18s WALL (     771 calls)
     cegterg      :     67.65s CPU     67.81s WALL (     385 calls)

     Called by sum_band:
     sum_band:wei :      0.00s CPU      0.00s WALL (     385 calls)
     sum_band:loo :     11.59s CPU     11.62s WALL (     385 calls)
     sum_band:buf :      0.00s CPU      0.00s WALL (     385 calls)
     sum_band:ini :      0.60s CPU      0.61s WALL (     385 calls)
     sum_band:cal :      0.16s CPU      0.16s WALL (     385 calls)
     sum_band:bec :      0.00s CPU      0.00s WALL (     385 calls)
     addusdens    :      3.69s CPU      3.88s WALL (     385 calls)
     addusd:skk   :      1.05s CPU      1.12s WALL (     385 calls)
     addusd:dgemm :      0.78s CPU      0.79s WALL (     385 calls)
     addusd:qvan2 :      0.99s CPU      1.06s WALL (     385 calls)

     Called by *egterg:
     cdiaghg      :      0.03s CPU      0.03s WALL (    1321 calls)
     cegterg:over :      0.84s CPU      0.85s WALL (    1011 calls)
     cegterg:upda :      0.63s CPU      0.63s WALL (    1011 calls)
     cegterg:last :      1.27s CPU      1.28s WALL (     848 calls)
     h_psi        :     63.48s CPU     63.62s WALL (    1397 calls)
     s_psi        :      0.36s CPU      0.36s WALL (    1397 calls)
     g_psi        :      0.27s CPU      0.27s WALL (    1011 calls)

     Called by h_psi:
     h_psi:calbec :      0.49s CPU      0.49s WALL (    1397 calls)
     vloc_psi     :     62.38s CPU     62.52s WALL (    1397 calls)
     add_vuspsi   :      0.39s CPU      0.39s WALL (    1397 calls)

     General routines
     calbec       :      0.70s CPU      0.71s WALL (    1982 calls)
     fft          :     91.15s CPU     91.27s WALL (    4686 calls)
     ffts         :      7.81s CPU      7.82s WALL (     385 calls)
     fftw         :     65.45s CPU     65.58s WALL (    5182 calls)


     PWSCF        :   5m32.94s CPU   5m36.02s WALL


   This run was terminated on:   1: 8:41  28Feb2022            

=------------------------------------------------------------------------------=
   JOB DONE.
=------------------------------------------------------------------------------=
