
     Program PWSCF v.7.0 starts on 28Feb2022 at 22:21:43 

     This program is part of the open-source Quantum ESPRESSO suite
     for quantum simulation of materials; please cite
         "P. Giannozzi et al., J. Phys.:Condens. Matter 21 395502 (2009);
         "P. Giannozzi et al., J. Phys.:Condens. Matter 29 465901 (2017);
         "P. Giannozzi et al., J. Chem. Phys. 152 154105 (2020);
          URL http://www.quantum-espresso.org", 
     in publications or presentations arising from this work. More details at
     http://www.quantum-espresso.org/quote

     Serial version
     1252 MiB available memory on the printing compute node when the environment starts

     Waiting for input...
     Reading input from standard input

     Current dimensions of program PWSCF are:
     Max number of different atomic species (ntypx) = 10
     Max number of k-points (npk) =  40000
     Max angular momentum in pseudopotentials (lmaxx) =  4

    ============================================================
    |  pseudopotential report for atomic species:  1           |
    |        pseudo potential version   7   3   2              |
    ------------------------------------------------------------
    |  hydrogen            PBE                  exchange-corr  |
    |  z =   1.    zv( 1) =   1.    exfact =   5.00000         |
    |  ifpcor =  0           atomic energy =  -0.91772 Ry      |
    |  index    orbital      occupation    energy              |
    |    1        100           1.00       -0.48               |
    |  rinner =  0.5000                                        |
    |    new generation scheme:                                |
    |    nbeta =  1     kkbeta =  271     rcloc =    0.6000    |
    |    ibeta    l     epsilon   rcut                         |
    |      1       0      -0.48   0.80                         |
    ============================================================

     IMPORTANT: XC functional enforced from input :
     Exchange-correlation= BLYP
                           (   1   3   1   3   0   0   0)
     Any further DFT definition will be discarded
     Please, verify this is what you really want


     G-vector sticks info
     --------------------
     sticks:   dense  smooth     PW     G-vecs:    dense   smooth      PW
     Sum        4281    4281   1185               211657   211657   30551

     Using Slab Decomposition



     bravais-lattice index     =            1
     lattice parameter (alat)  =      30.0000  a.u.
     unit-cell volume          =   27000.0000 (a.u.)^3
     number of atoms/cell      =            2
     number of atomic types    =            1
     number of electrons       =         2.00
     number of Kohn-Sham states=            2
     kinetic-energy cutoff     =      15.0000  Ry
     charge density cutoff     =      60.0000  Ry
     scf convergence threshold =      1.0E-08
     mixing beta               =       0.7000
     number of iterations used =            8  plain     mixing
     Exchange-correlation= BLYP
                           (   1   3   1   3   0   0   0)

     celldm(1)=  30.000000  celldm(2)=   0.000000  celldm(3)=   0.000000
     celldm(4)=   0.000000  celldm(5)=   0.000000  celldm(6)=   0.000000

     crystal axes: (cart. coord. in units of alat)
               a(1) = (   1.000000   0.000000   0.000000 )  
               a(2) = (   0.000000   1.000000   0.000000 )  
               a(3) = (   0.000000   0.000000   1.000000 )  

     reciprocal axes: (cart. coord. in units 2 pi/alat)
               b(1) = (  1.000000  0.000000  0.000000 )  
               b(2) = (  0.000000  1.000000  0.000000 )  
               b(3) = (  0.000000  0.000000  1.000000 )  


     PseudoPot. # 1 for hy read from file:
     /root/q-e/pseudo/H_US.van
     MD5 check sum: a9a9bfe98ff56cf4de197d71fc46bb44
     Pseudo is Ultrasoft, Zval =  1.0
     Generated by Vanderbilt code, v. 7.3.2
     Using radial grid of  399 points,  1 beta functions with: 
                l(1) =   0
     Q(r) pseudized with  8 coefficients,  rinner =    0.500

     atomic species   valence    mass     pseudopotential
        H              1.00     1.00784     hy( 1.00)

      8 Sym. Ops. (no inversion) found


                                    s                        frac. trans.

      isym =  1     identity                                     

 cryst.   s( 1) = (     1          0          0      )
                  (     0          1          0      )
                  (     0          0          1      )

 cart.    s( 1) = (  1.0000000  0.0000000  0.0000000 )
                  (  0.0000000  1.0000000  0.0000000 )
                  (  0.0000000  0.0000000  1.0000000 )


      isym =  2     180 deg rotation - cart. axis [1,0,0]        

 cryst.   s( 2) = (     1          0          0      )
                  (     0         -1          0      )
                  (     0          0         -1      )

 cart.    s( 2) = (  1.0000000  0.0000000  0.0000000 )
                  (  0.0000000 -1.0000000  0.0000000 )
                  (  0.0000000  0.0000000 -1.0000000 )


      isym =  3      90 deg rotation - cart. axis [-1,0,0]       

 cryst.   s( 3) = (     1          0          0      )
                  (     0          0         -1      )
                  (     0          1          0      )

 cart.    s( 3) = (  1.0000000  0.0000000  0.0000000 )
                  (  0.0000000  0.0000000  1.0000000 )
                  (  0.0000000 -1.0000000  0.0000000 )


      isym =  4      90 deg rotation - cart. axis [1,0,0]        

 cryst.   s( 4) = (     1          0          0      )
                  (     0          0          1      )
                  (     0         -1          0      )

 cart.    s( 4) = (  1.0000000  0.0000000  0.0000000 )
                  (  0.0000000  0.0000000 -1.0000000 )
                  (  0.0000000  1.0000000  0.0000000 )


      isym =  5     inv. 180 deg rotation - cart. axis [0,0,1]   

 cryst.   s( 5) = (     1          0          0      )
                  (     0          1          0      )
                  (     0          0         -1      )

 cart.    s( 5) = (  1.0000000  0.0000000  0.0000000 )
                  (  0.0000000  1.0000000  0.0000000 )
                  (  0.0000000  0.0000000 -1.0000000 )


      isym =  6     inv. 180 deg rotation - cart. axis [0,1,0]   

 cryst.   s( 6) = (     1          0          0      )
                  (     0         -1          0      )
                  (     0          0          1      )

 cart.    s( 6) = (  1.0000000  0.0000000  0.0000000 )
                  (  0.0000000 -1.0000000  0.0000000 )
                  (  0.0000000  0.0000000  1.0000000 )


      isym =  7     inv. 180 deg rotation - cart. axis [0,1,1]   

 cryst.   s( 7) = (     1          0          0      )
                  (     0          0         -1      )
                  (     0         -1          0      )

 cart.    s( 7) = (  1.0000000  0.0000000  0.0000000 )
                  (  0.0000000  0.0000000 -1.0000000 )
                  (  0.0000000 -1.0000000  0.0000000 )


      isym =  8     inv. 180 deg rotation - cart. axis [0,1,-1]  

 cryst.   s( 8) = (     1          0          0      )
                  (     0          0          1      )
                  (     0          1          0      )

 cart.    s( 8) = (  1.0000000  0.0000000  0.0000000 )
                  (  0.0000000  0.0000000  1.0000000 )
                  (  0.0000000  1.0000000  0.0000000 )


     point group C_4v (4mm) 
     there are  5 classes
     the character table:

       E     2C4   C2    2s_v  2s_d 
A_1    1.00  1.00  1.00  1.00  1.00
A_2    1.00  1.00  1.00 -1.00 -1.00
B_1    1.00 -1.00  1.00  1.00 -1.00
B_2    1.00 -1.00  1.00 -1.00  1.00
E      2.00  0.00 -2.00  0.00  0.00

     the symmetry operations in each class and the name of the first element:

     E        1
          identity                                               
     2C4      3    4
           90 deg rotation - cart. axis [-1,0,0]                 
     C2       2
          180 deg rotation - cart. axis [1,0,0]                  
     2s_v     5    6
          inv. 180 deg rotation - cart. axis [0,0,1]             
     2s_d     7    8
          inv. 180 deg rotation - cart. axis [0,1,1]             

   Cartesian axes

     site n.     atom                  positions (alat units)
         1           H   tau(   1) = (   0.0000000   0.0000000   0.0000000  )
         2           H   tau(   2) = (   0.0566918   0.0000000   0.0000000  )

   Crystallographic axes

     site n.     atom                  positions (cryst. coord.)
         1           H   tau(   1) = (  0.0000000  0.0000000  0.0000000  )
         2           H   tau(   2) = (  0.0566918  0.0000000  0.0000000  )

     number of k points=     1
                       cart. coord. in units 2pi/alat
        k(    1) = (  -0.5000000  -0.5000000  -0.5000000), wk =   2.0000000

                       cryst. coord.
        k(    1) = (  -0.5000000  -0.5000000  -0.5000000), wk =   2.0000000

     Dense  grid:   211657 G-vectors     FFT dimensions: (  75,  75,  75)

     Dynamical RAM for                 wfc:       0.81 MB

     Dynamical RAM for     wfc (w. buffer):       0.81 MB

     Dynamical RAM for           str. fact:       3.23 MB

     Dynamical RAM for           local pot:       0.00 MB

     Dynamical RAM for          nlocal pot:       0.81 MB

     Dynamical RAM for                qrad:       0.01 MB

     Dynamical RAM for          rho,v,vnew:      19.34 MB

     Dynamical RAM for               rhoin:       6.45 MB

     Dynamical RAM for            rho*nmix:      51.67 MB

     Dynamical RAM for           G-vectors:      13.73 MB

     Dynamical RAM for          h,s,v(r/c):       0.00 MB

     Dynamical RAM for          <psi|beta>:       0.00 MB

     Dynamical RAM for                 psi:       1.62 MB

     Dynamical RAM for                hpsi:       1.62 MB

     Dynamical RAM for                spsi:       1.62 MB

     Dynamical RAM for      wfcinit/wfcrot:       1.62 MB

     Dynamical RAM for           addusdens:      19.38 MB

     Estimated static dynamical RAM per process >      66.92 MB

     Estimated max dynamical RAM per process >     137.98 MB

     Initial potential from superposition of free atoms

     starting charge       2.0000, renormalised to       2.0000

     negative rho (up, down):  1.043E-01 0.000E+00
     Starting wfcs are    2 randomized atomic wfcs

     total cpu time spent up to now is        0.4 secs

     Self-consistent Calculation

     iteration #  1     ecut=    15.00 Ry     beta= 0.70
     Davidson diagonalization with overlap

---- Real-time Memory Report at c_bands before calling an iterative solver
           123 MiB given to the printing process from OS
             0 MiB allocation reported by mallinfo(arena+hblkhd)
          1172 MiB available memory on the node where the printing process lives
------------------
     ethr =  1.00E-02,  avg # of iterations =  3.0

     negative rho (up, down):  1.497E-01 0.000E+00

     total cpu time spent up to now is        0.8 secs

     total energy              =      -2.28188766 Ry
     estimated scf accuracy    <       0.07955505 Ry

     iteration #  2     ecut=    15.00 Ry     beta= 0.70
     Davidson diagonalization with overlap

---- Real-time Memory Report at c_bands before calling an iterative solver
           151 MiB given to the printing process from OS
             0 MiB allocation reported by mallinfo(arena+hblkhd)
          1114 MiB available memory on the node where the printing process lives
------------------
     ethr =  3.98E-03,  avg # of iterations =  2.0

     negative rho (up, down):  1.595E-01 0.000E+00

     total cpu time spent up to now is        1.2 secs

     total energy              =      -2.28126541 Ry
     estimated scf accuracy    <       0.00112861 Ry

     iteration #  3     ecut=    15.00 Ry     beta= 0.70
     Davidson diagonalization with overlap

---- Real-time Memory Report at c_bands before calling an iterative solver
           158 MiB given to the printing process from OS
             0 MiB allocation reported by mallinfo(arena+hblkhd)
          1107 MiB available memory on the node where the printing process lives
------------------
     ethr =  5.64E-05,  avg # of iterations = 12.0

     negative rho (up, down):  1.594E-01 0.000E+00

     total cpu time spent up to now is        1.7 secs

     total energy              =      -2.28152882 Ry
     estimated scf accuracy    <       0.00001153 Ry

     iteration #  4     ecut=    15.00 Ry     beta= 0.70
     Davidson diagonalization with overlap

---- Real-time Memory Report at c_bands before calling an iterative solver
           164 MiB given to the printing process from OS
             0 MiB allocation reported by mallinfo(arena+hblkhd)
          1101 MiB available memory on the node where the printing process lives
------------------
     ethr =  5.76E-07,  avg # of iterations =  6.0

     negative rho (up, down):  1.595E-01 0.000E+00

     total cpu time spent up to now is        2.1 secs

     total energy              =      -2.28146639 Ry
     estimated scf accuracy    <       0.00000028 Ry

     iteration #  5     ecut=    15.00 Ry     beta= 0.70
     Davidson diagonalization with overlap

---- Real-time Memory Report at c_bands before calling an iterative solver
           171 MiB given to the printing process from OS
             0 MiB allocation reported by mallinfo(arena+hblkhd)
          1094 MiB available memory on the node where the printing process lives
------------------
     ethr =  1.42E-08,  avg # of iterations =  3.0

     negative rho (up, down):  1.595E-01 0.000E+00

     total cpu time spent up to now is        2.5 secs

     total energy              =      -2.28148677 Ry
     estimated scf accuracy    <       0.00000009 Ry

     iteration #  6     ecut=    15.00 Ry     beta= 0.70
     Davidson diagonalization with overlap

---- Real-time Memory Report at c_bands before calling an iterative solver
           177 MiB given to the printing process from OS
             0 MiB allocation reported by mallinfo(arena+hblkhd)
          1088 MiB available memory on the node where the printing process lives
------------------
     ethr =  4.29E-09,  avg # of iterations =  4.0

     negative rho (up, down):  1.595E-01 0.000E+00

     total cpu time spent up to now is        2.9 secs

     total energy              =      -2.28148020 Ry
     estimated scf accuracy    <       0.00000011 Ry

     iteration #  7     ecut=    15.00 Ry     beta= 0.70
     Davidson diagonalization with overlap

---- Real-time Memory Report at c_bands before calling an iterative solver
           184 MiB given to the printing process from OS
             0 MiB allocation reported by mallinfo(arena+hblkhd)
          1081 MiB available memory on the node where the printing process lives
------------------
     ethr =  4.29E-09,  avg # of iterations =  3.0

     negative rho (up, down):  1.595E-01 0.000E+00

     total cpu time spent up to now is        3.3 secs

     total energy              =      -2.28147755 Ry
     estimated scf accuracy    <       0.00000006 Ry

     iteration #  8     ecut=    15.00 Ry     beta= 0.70
     Davidson diagonalization with overlap

---- Real-time Memory Report at c_bands before calling an iterative solver
           190 MiB given to the printing process from OS
             0 MiB allocation reported by mallinfo(arena+hblkhd)
          1075 MiB available memory on the node where the printing process lives
------------------
     ethr =  3.19E-09,  avg # of iterations =  3.0

     negative rho (up, down):  1.595E-01 0.000E+00

     total cpu time spent up to now is        3.7 secs

     total energy              =      -2.28146596 Ry
     estimated scf accuracy    <       0.00000002 Ry

     iteration #  9     ecut=    15.00 Ry     beta= 0.70
     Davidson diagonalization with overlap

---- Real-time Memory Report at c_bands before calling an iterative solver
           197 MiB given to the printing process from OS
             0 MiB allocation reported by mallinfo(arena+hblkhd)
          1068 MiB available memory on the node where the printing process lives
------------------
     ethr =  1.23E-09,  avg # of iterations =  5.0

     negative rho (up, down):  1.595E-01 0.000E+00

     total cpu time spent up to now is        4.2 secs

     total energy              =      -2.28147473 Ry
     estimated scf accuracy    <       0.00000047 Ry

     iteration # 10     ecut=    15.00 Ry     beta= 0.70
     Davidson diagonalization with overlap

---- Real-time Memory Report at c_bands before calling an iterative solver
           203 MiB given to the printing process from OS
             0 MiB allocation reported by mallinfo(arena+hblkhd)
          1062 MiB available memory on the node where the printing process lives
------------------
     ethr =  1.23E-09,  avg # of iterations =  3.0

     negative rho (up, down):  1.595E-01 0.000E+00

     total cpu time spent up to now is        4.6 secs

     total energy              =      -2.28144802 Ry
     estimated scf accuracy    <       0.00000034 Ry

     iteration # 11     ecut=    15.00 Ry     beta= 0.70
     Davidson diagonalization with overlap

---- Real-time Memory Report at c_bands before calling an iterative solver
           203 MiB given to the printing process from OS
             0 MiB allocation reported by mallinfo(arena+hblkhd)
          1062 MiB available memory on the node where the printing process lives
------------------
     ethr =  1.23E-09,  avg # of iterations =  4.0

     negative rho (up, down):  1.595E-01 0.000E+00

     total cpu time spent up to now is        5.0 secs

     total energy              =      -2.28146911 Ry
     estimated scf accuracy    <       0.00000030 Ry

     iteration # 12     ecut=    15.00 Ry     beta= 0.70
     Davidson diagonalization with overlap

---- Real-time Memory Report at c_bands before calling an iterative solver
           203 MiB given to the printing process from OS
             0 MiB allocation reported by mallinfo(arena+hblkhd)
          1062 MiB available memory on the node where the printing process lives
------------------
     ethr =  1.23E-09,  avg # of iterations =  4.0

     negative rho (up, down):  1.595E-01 0.000E+00

     total cpu time spent up to now is        5.5 secs

     total energy              =      -2.28146700 Ry
     estimated scf accuracy    <       0.00000019 Ry

     iteration # 13     ecut=    15.00 Ry     beta= 0.70
     Davidson diagonalization with overlap

---- Real-time Memory Report at c_bands before calling an iterative solver
           203 MiB given to the printing process from OS
             0 MiB allocation reported by mallinfo(arena+hblkhd)
          1062 MiB available memory on the node where the printing process lives
------------------
     ethr =  1.23E-09,  avg # of iterations =  4.0

     negative rho (up, down):  1.595E-01 0.000E+00

     total cpu time spent up to now is        5.9 secs

     total energy              =      -2.28147468 Ry
     estimated scf accuracy    <       0.00000026 Ry

     iteration # 14     ecut=    15.00 Ry     beta= 0.70
     Davidson diagonalization with overlap

---- Real-time Memory Report at c_bands before calling an iterative solver
           203 MiB given to the printing process from OS
             0 MiB allocation reported by mallinfo(arena+hblkhd)
          1062 MiB available memory on the node where the printing process lives
------------------
     ethr =  1.23E-09,  avg # of iterations =  3.0

     negative rho (up, down):  1.595E-01 0.000E+00

     total cpu time spent up to now is        6.3 secs

     total energy              =      -2.28147660 Ry
     estimated scf accuracy    <       0.00000018 Ry

     iteration # 15     ecut=    15.00 Ry     beta= 0.70
     Davidson diagonalization with overlap

---- Real-time Memory Report at c_bands before calling an iterative solver
           203 MiB given to the printing process from OS
             0 MiB allocation reported by mallinfo(arena+hblkhd)
          1062 MiB available memory on the node where the printing process lives
------------------
     ethr =  1.23E-09,  avg # of iterations =  3.0

     negative rho (up, down):  1.595E-01 0.000E+00

     total cpu time spent up to now is        6.7 secs

     total energy              =      -2.28146443 Ry
     estimated scf accuracy    <       0.00000019 Ry

     iteration # 16     ecut=    15.00 Ry     beta= 0.70
     Davidson diagonalization with overlap

---- Real-time Memory Report at c_bands before calling an iterative solver
           203 MiB given to the printing process from OS
             0 MiB allocation reported by mallinfo(arena+hblkhd)
          1062 MiB available memory on the node where the printing process lives
------------------
     ethr =  1.23E-09,  avg # of iterations =  4.0

     negative rho (up, down):  1.595E-01 0.000E+00

     total cpu time spent up to now is        7.1 secs

     total energy              =      -2.28148671 Ry
     estimated scf accuracy    <       0.00000046 Ry

     iteration # 17     ecut=    15.00 Ry     beta= 0.70
     Davidson diagonalization with overlap

---- Real-time Memory Report at c_bands before calling an iterative solver
           203 MiB given to the printing process from OS
             0 MiB allocation reported by mallinfo(arena+hblkhd)
          1062 MiB available memory on the node where the printing process lives
------------------
     ethr =  1.23E-09,  avg # of iterations =  4.0

     negative rho (up, down):  1.595E-01 0.000E+00

     total cpu time spent up to now is        7.5 secs

     total energy              =      -2.28140876 Ry
     estimated scf accuracy    <       0.00000055 Ry

     iteration # 18     ecut=    15.00 Ry     beta= 0.70
     Davidson diagonalization with overlap

---- Real-time Memory Report at c_bands before calling an iterative solver
           203 MiB given to the printing process from OS
             0 MiB allocation reported by mallinfo(arena+hblkhd)
          1062 MiB available memory on the node where the printing process lives
------------------
     ethr =  1.23E-09,  avg # of iterations =  4.0

     negative rho (up, down):  1.595E-01 0.000E+00

     total cpu time spent up to now is        8.0 secs

     total energy              =      -2.28141743 Ry
     estimated scf accuracy    <       0.00000014 Ry

     iteration # 19     ecut=    15.00 Ry     beta= 0.70
     Davidson diagonalization with overlap

---- Real-time Memory Report at c_bands before calling an iterative solver
           203 MiB given to the printing process from OS
             0 MiB allocation reported by mallinfo(arena+hblkhd)
          1062 MiB available memory on the node where the printing process lives
------------------
     ethr =  1.23E-09,  avg # of iterations =  4.0

     negative rho (up, down):  1.596E-01 0.000E+00

     total cpu time spent up to now is        8.4 secs

     total energy              =      -2.28141846 Ry
     estimated scf accuracy    <       0.00000018 Ry

     iteration # 20     ecut=    15.00 Ry     beta= 0.70
     Davidson diagonalization with overlap

---- Real-time Memory Report at c_bands before calling an iterative solver
           203 MiB given to the printing process from OS
             0 MiB allocation reported by mallinfo(arena+hblkhd)
          1062 MiB available memory on the node where the printing process lives
------------------
     ethr =  1.23E-09,  avg # of iterations =  2.0

     negative rho (up, down):  1.596E-01 0.000E+00

     total cpu time spent up to now is        8.8 secs

     total energy              =      -2.28141000 Ry
     estimated scf accuracy    <       0.00000018 Ry

     iteration # 21     ecut=    15.00 Ry     beta= 0.70
     Davidson diagonalization with overlap

---- Real-time Memory Report at c_bands before calling an iterative solver
           203 MiB given to the printing process from OS
             0 MiB allocation reported by mallinfo(arena+hblkhd)
          1062 MiB available memory on the node where the printing process lives
------------------
     ethr =  1.23E-09,  avg # of iterations =  3.0

     negative rho (up, down):  1.596E-01 0.000E+00

     total cpu time spent up to now is        9.2 secs

     total energy              =      -2.28141538 Ry
     estimated scf accuracy    <       0.00000020 Ry

     iteration # 22     ecut=    15.00 Ry     beta= 0.70
     Davidson diagonalization with overlap

---- Real-time Memory Report at c_bands before calling an iterative solver
           203 MiB given to the printing process from OS
             0 MiB allocation reported by mallinfo(arena+hblkhd)
          1062 MiB available memory on the node where the printing process lives
------------------
     ethr =  1.23E-09,  avg # of iterations =  3.0

     negative rho (up, down):  1.595E-01 0.000E+00

     total cpu time spent up to now is        9.6 secs

     total energy              =      -2.28143589 Ry
     estimated scf accuracy    <       0.00000014 Ry

     iteration # 23     ecut=    15.00 Ry     beta= 0.70
     Davidson diagonalization with overlap

---- Real-time Memory Report at c_bands before calling an iterative solver
           203 MiB given to the printing process from OS
             0 MiB allocation reported by mallinfo(arena+hblkhd)
          1062 MiB available memory on the node where the printing process lives
------------------
     ethr =  1.23E-09,  avg # of iterations =  4.0

     negative rho (up, down):  1.596E-01 0.000E+00

     total cpu time spent up to now is       10.0 secs

     total energy              =      -2.28140146 Ry
     estimated scf accuracy    <       0.00000002 Ry

     iteration # 24     ecut=    15.00 Ry     beta= 0.70
     Davidson diagonalization with overlap

---- Real-time Memory Report at c_bands before calling an iterative solver
           203 MiB given to the printing process from OS
             0 MiB allocation reported by mallinfo(arena+hblkhd)
          1062 MiB available memory on the node where the printing process lives
------------------
     ethr =  1.01E-09,  avg # of iterations =  4.0

     negative rho (up, down):  1.598E-01 0.000E+00

     total cpu time spent up to now is       10.4 secs

     total energy              =      -2.28131200 Ry
     estimated scf accuracy    <       0.00000012 Ry

     iteration # 25     ecut=    15.00 Ry     beta= 0.70
     Davidson diagonalization with overlap

---- Real-time Memory Report at c_bands before calling an iterative solver
           203 MiB given to the printing process from OS
             0 MiB allocation reported by mallinfo(arena+hblkhd)
          1062 MiB available memory on the node where the printing process lives
------------------
     ethr =  1.01E-09,  avg # of iterations =  4.0

     negative rho (up, down):  1.598E-01 0.000E+00

     total cpu time spent up to now is       10.9 secs

     total energy              =      -2.28130536 Ry
     estimated scf accuracy    <       0.00000121 Ry

     iteration # 26     ecut=    15.00 Ry     beta= 0.70
     Davidson diagonalization with overlap

---- Real-time Memory Report at c_bands before calling an iterative solver
           203 MiB given to the printing process from OS
             0 MiB allocation reported by mallinfo(arena+hblkhd)
          1062 MiB available memory on the node where the printing process lives
------------------
     ethr =  1.01E-09,  avg # of iterations =  3.0

     negative rho (up, down):  1.597E-01 0.000E+00

     total cpu time spent up to now is       11.3 secs

     total energy              =      -2.28134999 Ry
     estimated scf accuracy    <       0.00000166 Ry

     iteration # 27     ecut=    15.00 Ry     beta= 0.70
     Davidson diagonalization with overlap

---- Real-time Memory Report at c_bands before calling an iterative solver
           203 MiB given to the printing process from OS
             0 MiB allocation reported by mallinfo(arena+hblkhd)
          1062 MiB available memory on the node where the printing process lives
------------------
     ethr =  1.01E-09,  avg # of iterations =  4.0

     negative rho (up, down):  1.596E-01 0.000E+00

     total cpu time spent up to now is       11.7 secs

     total energy              =      -2.28137830 Ry
     estimated scf accuracy    <       0.00000077 Ry

     iteration # 28     ecut=    15.00 Ry     beta= 0.70
     Davidson diagonalization with overlap

---- Real-time Memory Report at c_bands before calling an iterative solver
           203 MiB given to the printing process from OS
             0 MiB allocation reported by mallinfo(arena+hblkhd)
          1062 MiB available memory on the node where the printing process lives
------------------
     ethr =  1.01E-09,  avg # of iterations =  4.0

     negative rho (up, down):  1.594E-01 0.000E+00

     total cpu time spent up to now is       12.2 secs

     total energy              =      -2.28151779 Ry
     estimated scf accuracy    <       0.00000037 Ry

     iteration # 29     ecut=    15.00 Ry     beta= 0.70
     Davidson diagonalization with overlap

---- Real-time Memory Report at c_bands before calling an iterative solver
           203 MiB given to the printing process from OS
             0 MiB allocation reported by mallinfo(arena+hblkhd)
          1062 MiB available memory on the node where the printing process lives
------------------
     ethr =  1.01E-09,  avg # of iterations =  5.0

     negative rho (up, down):  1.596E-01 0.000E+00

     total cpu time spent up to now is       12.6 secs

     total energy              =      -2.28139471 Ry
     estimated scf accuracy    <       0.00000022 Ry

     iteration # 30     ecut=    15.00 Ry     beta= 0.70
     Davidson diagonalization with overlap

---- Real-time Memory Report at c_bands before calling an iterative solver
           203 MiB given to the printing process from OS
             0 MiB allocation reported by mallinfo(arena+hblkhd)
          1062 MiB available memory on the node where the printing process lives
------------------
     ethr =  1.01E-09,  avg # of iterations =  4.0

     negative rho (up, down):  1.596E-01 0.000E+00

     total cpu time spent up to now is       13.0 secs

     total energy              =      -2.28140171 Ry
     estimated scf accuracy    <       0.00000023 Ry

     iteration # 31     ecut=    15.00 Ry     beta= 0.70
     Davidson diagonalization with overlap

---- Real-time Memory Report at c_bands before calling an iterative solver
           203 MiB given to the printing process from OS
             0 MiB allocation reported by mallinfo(arena+hblkhd)
          1062 MiB available memory on the node where the printing process lives
------------------
     ethr =  1.01E-09,  avg # of iterations =  4.0

     negative rho (up, down):  1.595E-01 0.000E+00

     total cpu time spent up to now is       13.5 secs

     total energy              =      -2.28143328 Ry
     estimated scf accuracy    <       0.00000017 Ry

     iteration # 32     ecut=    15.00 Ry     beta= 0.70
     Davidson diagonalization with overlap

---- Real-time Memory Report at c_bands before calling an iterative solver
           203 MiB given to the printing process from OS
             0 MiB allocation reported by mallinfo(arena+hblkhd)
          1062 MiB available memory on the node where the printing process lives
------------------
     ethr =  1.01E-09,  avg # of iterations =  4.0

     negative rho (up, down):  1.595E-01 0.000E+00

     total cpu time spent up to now is       13.9 secs

     total energy              =      -2.28144548 Ry
     estimated scf accuracy    <       0.00000016 Ry

     iteration # 33     ecut=    15.00 Ry     beta= 0.70
     Davidson diagonalization with overlap

---- Real-time Memory Report at c_bands before calling an iterative solver
           203 MiB given to the printing process from OS
             0 MiB allocation reported by mallinfo(arena+hblkhd)
          1062 MiB available memory on the node where the printing process lives
------------------
     ethr =  1.01E-09,  avg # of iterations =  4.0

     negative rho (up, down):  1.596E-01 0.000E+00

     total cpu time spent up to now is       14.4 secs

     total energy              =      -2.28139819 Ry
     estimated scf accuracy    <       0.00000050 Ry

     iteration # 34     ecut=    15.00 Ry     beta= 0.70
     Davidson diagonalization with overlap

---- Real-time Memory Report at c_bands before calling an iterative solver
           203 MiB given to the printing process from OS
             0 MiB allocation reported by mallinfo(arena+hblkhd)
          1062 MiB available memory on the node where the printing process lives
------------------
     ethr =  1.01E-09,  avg # of iterations =  4.0

     negative rho (up, down):  1.595E-01 0.000E+00

     total cpu time spent up to now is       14.8 secs

     total energy              =      -2.28144818 Ry
     estimated scf accuracy    <       0.00000029 Ry

     iteration # 35     ecut=    15.00 Ry     beta= 0.70
     Davidson diagonalization with overlap

---- Real-time Memory Report at c_bands before calling an iterative solver
           203 MiB given to the printing process from OS
             0 MiB allocation reported by mallinfo(arena+hblkhd)
          1062 MiB available memory on the node where the printing process lives
------------------
     ethr =  1.01E-09,  avg # of iterations =  4.0

     negative rho (up, down):  1.596E-01 0.000E+00

     total cpu time spent up to now is       15.2 secs

     total energy              =      -2.28139725 Ry
     estimated scf accuracy    <       0.00000002 Ry

     iteration # 36     ecut=    15.00 Ry     beta= 0.70
     Davidson diagonalization with overlap

---- Real-time Memory Report at c_bands before calling an iterative solver
           203 MiB given to the printing process from OS
             0 MiB allocation reported by mallinfo(arena+hblkhd)
          1062 MiB available memory on the node where the printing process lives
------------------
     ethr =  1.01E-09,  avg # of iterations =  4.0

     negative rho (up, down):  1.595E-01 0.000E+00

     total cpu time spent up to now is       15.6 secs

     total energy              =      -2.28143157 Ry
     estimated scf accuracy    <       0.00000020 Ry

     iteration # 37     ecut=    15.00 Ry     beta= 0.70
     Davidson diagonalization with overlap

---- Real-time Memory Report at c_bands before calling an iterative solver
           203 MiB given to the printing process from OS
             0 MiB allocation reported by mallinfo(arena+hblkhd)
          1062 MiB available memory on the node where the printing process lives
------------------
     ethr =  1.01E-09,  avg # of iterations =  4.0

     negative rho (up, down):  1.595E-01 0.000E+00

     total cpu time spent up to now is       16.1 secs

     total energy              =      -2.28143082 Ry
     estimated scf accuracy    <       0.00000003 Ry

     iteration # 38     ecut=    15.00 Ry     beta= 0.70
     Davidson diagonalization with overlap

---- Real-time Memory Report at c_bands before calling an iterative solver
           203 MiB given to the printing process from OS
             0 MiB allocation reported by mallinfo(arena+hblkhd)
          1061 MiB available memory on the node where the printing process lives
------------------
     ethr =  1.01E-09,  avg # of iterations =  4.0

     negative rho (up, down):  1.596E-01 0.000E+00

     total cpu time spent up to now is       16.5 secs

     total energy              =      -2.28141953 Ry
     estimated scf accuracy    <       0.00000023 Ry

     iteration # 39     ecut=    15.00 Ry     beta= 0.70
     Davidson diagonalization with overlap

---- Real-time Memory Report at c_bands before calling an iterative solver
           203 MiB given to the printing process from OS
             0 MiB allocation reported by mallinfo(arena+hblkhd)
          1061 MiB available memory on the node where the printing process lives
------------------
     ethr =  1.01E-09,  avg # of iterations =  4.0

     negative rho (up, down):  1.596E-01 0.000E+00

     total cpu time spent up to now is       16.9 secs

     total energy              =      -2.28140813 Ry
     estimated scf accuracy    <       0.00000021 Ry

     iteration # 40     ecut=    15.00 Ry     beta= 0.70
     Davidson diagonalization with overlap

---- Real-time Memory Report at c_bands before calling an iterative solver
           203 MiB given to the printing process from OS
             0 MiB allocation reported by mallinfo(arena+hblkhd)
          1061 MiB available memory on the node where the printing process lives
------------------
     ethr =  1.01E-09,  avg # of iterations =  4.0

     negative rho (up, down):  1.596E-01 0.000E+00

     total cpu time spent up to now is       17.4 secs

     total energy              =      -2.28140069 Ry
     estimated scf accuracy    <       0.00000014 Ry

     iteration # 41     ecut=    15.00 Ry     beta= 0.70
     Davidson diagonalization with overlap

---- Real-time Memory Report at c_bands before calling an iterative solver
           203 MiB given to the printing process from OS
             0 MiB allocation reported by mallinfo(arena+hblkhd)
          1061 MiB available memory on the node where the printing process lives
------------------
     ethr =  1.01E-09,  avg # of iterations =  4.0

     negative rho (up, down):  1.595E-01 0.000E+00

     total cpu time spent up to now is       17.8 secs

     total energy              =      -2.28141820 Ry
     estimated scf accuracy    <       0.00000038 Ry

     iteration # 42     ecut=    15.00 Ry     beta= 0.70
     Davidson diagonalization with overlap

---- Real-time Memory Report at c_bands before calling an iterative solver
           203 MiB given to the printing process from OS
             0 MiB allocation reported by mallinfo(arena+hblkhd)
          1061 MiB available memory on the node where the printing process lives
------------------
     ethr =  1.01E-09,  avg # of iterations =  3.0

     negative rho (up, down):  1.595E-01 0.000E+00

     total cpu time spent up to now is       18.2 secs

     total energy              =      -2.28144329 Ry
     estimated scf accuracy    <       0.00000029 Ry

     iteration # 43     ecut=    15.00 Ry     beta= 0.70
     Davidson diagonalization with overlap

---- Real-time Memory Report at c_bands before calling an iterative solver
           203 MiB given to the printing process from OS
             0 MiB allocation reported by mallinfo(arena+hblkhd)
          1061 MiB available memory on the node where the printing process lives
------------------
     ethr =  1.01E-09,  avg # of iterations =  4.0

     negative rho (up, down):  1.595E-01 0.000E+00

     total cpu time spent up to now is       18.6 secs

     total energy              =      -2.28143857 Ry
     estimated scf accuracy    <       0.00000010 Ry

     iteration # 44     ecut=    15.00 Ry     beta= 0.70
     Davidson diagonalization with overlap

---- Real-time Memory Report at c_bands before calling an iterative solver
           203 MiB given to the printing process from OS
             0 MiB allocation reported by mallinfo(arena+hblkhd)
          1061 MiB available memory on the node where the printing process lives
------------------
     ethr =  1.01E-09,  avg # of iterations =  5.0

     negative rho (up, down):  1.595E-01 0.000E+00

     total cpu time spent up to now is       19.0 secs

     total energy              =      -2.28143476 Ry
     estimated scf accuracy    <       0.00000014 Ry

     iteration # 45     ecut=    15.00 Ry     beta= 0.70
     Davidson diagonalization with overlap

---- Real-time Memory Report at c_bands before calling an iterative solver
           203 MiB given to the printing process from OS
             0 MiB allocation reported by mallinfo(arena+hblkhd)
          1061 MiB available memory on the node where the printing process lives
------------------
     ethr =  1.01E-09,  avg # of iterations =  5.0

     negative rho (up, down):  1.596E-01 0.000E+00

     total cpu time spent up to now is       19.5 secs

     total energy              =      -2.28141239 Ry
     estimated scf accuracy    <       0.00000017 Ry

     iteration # 46     ecut=    15.00 Ry     beta= 0.70
     Davidson diagonalization with overlap

---- Real-time Memory Report at c_bands before calling an iterative solver
           203 MiB given to the printing process from OS
             0 MiB allocation reported by mallinfo(arena+hblkhd)
          1061 MiB available memory on the node where the printing process lives
------------------
     ethr =  1.01E-09,  avg # of iterations =  4.0

     negative rho (up, down):  1.595E-01 0.000E+00

     total cpu time spent up to now is       19.9 secs

     total energy              =      -2.28142069 Ry
     estimated scf accuracy    <       0.00000013 Ry

     iteration # 47     ecut=    15.00 Ry     beta= 0.70
     Davidson diagonalization with overlap

---- Real-time Memory Report at c_bands before calling an iterative solver
           203 MiB given to the printing process from OS
             0 MiB allocation reported by mallinfo(arena+hblkhd)
          1061 MiB available memory on the node where the printing process lives
------------------
     ethr =  1.01E-09,  avg # of iterations =  4.0

     negative rho (up, down):  1.596E-01 0.000E+00

     total cpu time spent up to now is       20.4 secs

     total energy              =      -2.28141612 Ry
     estimated scf accuracy    <       0.00000015 Ry

     iteration # 48     ecut=    15.00 Ry     beta= 0.70
     Davidson diagonalization with overlap

---- Real-time Memory Report at c_bands before calling an iterative solver
           203 MiB given to the printing process from OS
             0 MiB allocation reported by mallinfo(arena+hblkhd)
          1061 MiB available memory on the node where the printing process lives
------------------
     ethr =  1.01E-09,  avg # of iterations =  5.0

     negative rho (up, down):  1.596E-01 0.000E+00

     total cpu time spent up to now is       20.8 secs

     total energy              =      -2.28142579 Ry
     estimated scf accuracy    <       0.00000013 Ry

     iteration # 49     ecut=    15.00 Ry     beta= 0.70
     Davidson diagonalization with overlap

---- Real-time Memory Report at c_bands before calling an iterative solver
           203 MiB given to the printing process from OS
             0 MiB allocation reported by mallinfo(arena+hblkhd)
          1061 MiB available memory on the node where the printing process lives
------------------
     ethr =  1.01E-09,  avg # of iterations =  3.0

     negative rho (up, down):  1.595E-01 0.000E+00

     total cpu time spent up to now is       21.2 secs

     total energy              =      -2.28143965 Ry
     estimated scf accuracy    <       0.00000018 Ry

     iteration # 50     ecut=    15.00 Ry     beta= 0.70
     Davidson diagonalization with overlap

---- Real-time Memory Report at c_bands before calling an iterative solver
           203 MiB given to the printing process from OS
             0 MiB allocation reported by mallinfo(arena+hblkhd)
          1061 MiB available memory on the node where the printing process lives
------------------
     ethr =  1.01E-09,  avg # of iterations =  4.0

     negative rho (up, down):  1.595E-01 0.000E+00

     total cpu time spent up to now is       21.6 secs

     total energy              =      -2.28143933 Ry
     estimated scf accuracy    <       0.00000007 Ry

     iteration # 51     ecut=    15.00 Ry     beta= 0.70
     Davidson diagonalization with overlap

---- Real-time Memory Report at c_bands before calling an iterative solver
           203 MiB given to the printing process from OS
             0 MiB allocation reported by mallinfo(arena+hblkhd)
          1061 MiB available memory on the node where the printing process lives
------------------
     ethr =  1.01E-09,  avg # of iterations =  4.0

     negative rho (up, down):  1.595E-01 0.000E+00

     total cpu time spent up to now is       22.0 secs

     total energy              =      -2.28144016 Ry
     estimated scf accuracy    <       0.00000013 Ry

     iteration # 52     ecut=    15.00 Ry     beta= 0.70
     Davidson diagonalization with overlap

---- Real-time Memory Report at c_bands before calling an iterative solver
           203 MiB given to the printing process from OS
             0 MiB allocation reported by mallinfo(arena+hblkhd)
          1061 MiB available memory on the node where the printing process lives
------------------
     ethr =  1.01E-09,  avg # of iterations =  4.0

     negative rho (up, down):  1.595E-01 0.000E+00

     total cpu time spent up to now is       22.4 secs

     total energy              =      -2.28144130 Ry
     estimated scf accuracy    <       0.00000005 Ry

     iteration # 53     ecut=    15.00 Ry     beta= 0.70
     Davidson diagonalization with overlap

---- Real-time Memory Report at c_bands before calling an iterative solver
           203 MiB given to the printing process from OS
             0 MiB allocation reported by mallinfo(arena+hblkhd)
          1061 MiB available memory on the node where the printing process lives
------------------
     ethr =  1.01E-09,  avg # of iterations =  3.0

     negative rho (up, down):  1.595E-01 0.000E+00

     total cpu time spent up to now is       22.8 secs

     total energy              =      -2.28143036 Ry
     estimated scf accuracy    <       0.00000002 Ry

     iteration # 54     ecut=    15.00 Ry     beta= 0.70
     Davidson diagonalization with overlap

---- Real-time Memory Report at c_bands before calling an iterative solver
           203 MiB given to the printing process from OS
             0 MiB allocation reported by mallinfo(arena+hblkhd)
          1061 MiB available memory on the node where the printing process lives
------------------
     ethr =  7.50E-10,  avg # of iterations =  3.0

     negative rho (up, down):  1.596E-01 0.000E+00

     total cpu time spent up to now is       23.3 secs

     total energy              =      -2.28141384 Ry
     estimated scf accuracy    <       0.00000002 Ry

     iteration # 55     ecut=    15.00 Ry     beta= 0.70
     Davidson diagonalization with overlap

---- Real-time Memory Report at c_bands before calling an iterative solver
           203 MiB given to the printing process from OS
             0 MiB allocation reported by mallinfo(arena+hblkhd)
          1061 MiB available memory on the node where the printing process lives
------------------
     ethr =  7.50E-10,  avg # of iterations =  4.0

     negative rho (up, down):  1.596E-01 0.000E+00

     total cpu time spent up to now is       23.7 secs

     total energy              =      -2.28143417 Ry
     estimated scf accuracy    <       0.00000010 Ry

     iteration # 56     ecut=    15.00 Ry     beta= 0.70
     Davidson diagonalization with overlap

---- Real-time Memory Report at c_bands before calling an iterative solver
           203 MiB given to the printing process from OS
             0 MiB allocation reported by mallinfo(arena+hblkhd)
          1061 MiB available memory on the node where the printing process lives
------------------
     ethr =  7.50E-10,  avg # of iterations =  4.0

     negative rho (up, down):  1.595E-01 0.000E+00

     total cpu time spent up to now is       24.1 secs

     total energy              =      -2.28145603 Ry
     estimated scf accuracy    <       0.00000015 Ry

     iteration # 57     ecut=    15.00 Ry     beta= 0.70
     Davidson diagonalization with overlap

---- Real-time Memory Report at c_bands before calling an iterative solver
           203 MiB given to the printing process from OS
             0 MiB allocation reported by mallinfo(arena+hblkhd)
          1061 MiB available memory on the node where the printing process lives
------------------
     ethr =  7.50E-10,  avg # of iterations =  4.0

     negative rho (up, down):  1.595E-01 0.000E+00

     total cpu time spent up to now is       24.5 secs

     total energy              =      -2.28150645 Ry
     estimated scf accuracy    <       0.00000011 Ry

     iteration # 58     ecut=    15.00 Ry     beta= 0.70
     Davidson diagonalization with overlap

---- Real-time Memory Report at c_bands before calling an iterative solver
           203 MiB given to the printing process from OS
             0 MiB allocation reported by mallinfo(arena+hblkhd)
          1061 MiB available memory on the node where the printing process lives
------------------
     ethr =  7.50E-10,  avg # of iterations =  4.0

     negative rho (up, down):  1.595E-01 0.000E+00

     total cpu time spent up to now is       24.9 secs

     total energy              =      -2.28147260 Ry
     estimated scf accuracy    <       0.00000006 Ry

     iteration # 59     ecut=    15.00 Ry     beta= 0.70
     Davidson diagonalization with overlap

---- Real-time Memory Report at c_bands before calling an iterative solver
           203 MiB given to the printing process from OS
             0 MiB allocation reported by mallinfo(arena+hblkhd)
          1061 MiB available memory on the node where the printing process lives
------------------
     ethr =  7.50E-10,  avg # of iterations =  5.0

     negative rho (up, down):  1.595E-01 0.000E+00

     total cpu time spent up to now is       25.4 secs

     total energy              =      -2.28147529 Ry
     estimated scf accuracy    <       0.00000062 Ry

     iteration # 60     ecut=    15.00 Ry     beta= 0.70
     Davidson diagonalization with overlap

---- Real-time Memory Report at c_bands before calling an iterative solver
           203 MiB given to the printing process from OS
             0 MiB allocation reported by mallinfo(arena+hblkhd)
          1061 MiB available memory on the node where the printing process lives
------------------
     ethr =  7.50E-10,  avg # of iterations =  5.0

     negative rho (up, down):  1.596E-01 0.000E+00

     total cpu time spent up to now is       25.8 secs

     total energy              =      -2.28141203 Ry
     estimated scf accuracy    <       0.00000004 Ry

     iteration # 61     ecut=    15.00 Ry     beta= 0.70
     Davidson diagonalization with overlap

---- Real-time Memory Report at c_bands before calling an iterative solver
           203 MiB given to the printing process from OS
             0 MiB allocation reported by mallinfo(arena+hblkhd)
          1061 MiB available memory on the node where the printing process lives
------------------
     ethr =  7.50E-10,  avg # of iterations =  4.0

     negative rho (up, down):  1.596E-01 0.000E+00

     total cpu time spent up to now is       26.2 secs

     total energy              =      -2.28142134 Ry
     estimated scf accuracy    <       0.00000026 Ry

     iteration # 62     ecut=    15.00 Ry     beta= 0.70
     Davidson diagonalization with overlap

---- Real-time Memory Report at c_bands before calling an iterative solver
           203 MiB given to the printing process from OS
             0 MiB allocation reported by mallinfo(arena+hblkhd)
          1061 MiB available memory on the node where the printing process lives
------------------
     ethr =  7.50E-10,  avg # of iterations =  4.0

     negative rho (up, down):  1.595E-01 0.000E+00

     total cpu time spent up to now is       26.7 secs

     total energy              =      -2.28141715 Ry
     estimated scf accuracy    <       0.00000047 Ry

     iteration # 63     ecut=    15.00 Ry     beta= 0.70
     Davidson diagonalization with overlap

---- Real-time Memory Report at c_bands before calling an iterative solver
           203 MiB given to the printing process from OS
             0 MiB allocation reported by mallinfo(arena+hblkhd)
          1061 MiB available memory on the node where the printing process lives
------------------
     ethr =  7.50E-10,  avg # of iterations =  5.0

     negative rho (up, down):  1.595E-01 0.000E+00

     total cpu time spent up to now is       27.1 secs

     total energy              =      -2.28143466 Ry
     estimated scf accuracy    <       0.00000001 Ry

     iteration # 64     ecut=    15.00 Ry     beta= 0.70
     Davidson diagonalization with overlap

---- Real-time Memory Report at c_bands before calling an iterative solver
           203 MiB given to the printing process from OS
             0 MiB allocation reported by mallinfo(arena+hblkhd)
          1061 MiB available memory on the node where the printing process lives
------------------
     ethr =  5.19E-10,  avg # of iterations =  4.0

     negative rho (up, down):  1.595E-01 0.000E+00

     total cpu time spent up to now is       27.5 secs

     total energy              =      -2.28144979 Ry
     estimated scf accuracy    <       0.00000002 Ry

     iteration # 65     ecut=    15.00 Ry     beta= 0.70
     Davidson diagonalization with overlap

---- Real-time Memory Report at c_bands before calling an iterative solver
           203 MiB given to the printing process from OS
             0 MiB allocation reported by mallinfo(arena+hblkhd)
          1061 MiB available memory on the node where the printing process lives
------------------
     ethr =  5.19E-10,  avg # of iterations =  4.0

     negative rho (up, down):  1.595E-01 0.000E+00

     total cpu time spent up to now is       27.9 secs

     total energy              =      -2.28144760 Ry
     estimated scf accuracy    <       0.00000006 Ry

     iteration # 66     ecut=    15.00 Ry     beta= 0.70
     Davidson diagonalization with overlap

---- Real-time Memory Report at c_bands before calling an iterative solver
           203 MiB given to the printing process from OS
             0 MiB allocation reported by mallinfo(arena+hblkhd)
          1061 MiB available memory on the node where the printing process lives
------------------
     ethr =  5.19E-10,  avg # of iterations =  4.0

     negative rho (up, down):  1.596E-01 0.000E+00

     total cpu time spent up to now is       28.4 secs

     total energy              =      -2.28141946 Ry
     estimated scf accuracy    <       0.00000006 Ry

     iteration # 67     ecut=    15.00 Ry     beta= 0.70
     Davidson diagonalization with overlap

---- Real-time Memory Report at c_bands before calling an iterative solver
           203 MiB given to the printing process from OS
             0 MiB allocation reported by mallinfo(arena+hblkhd)
          1061 MiB available memory on the node where the printing process lives
------------------
     ethr =  5.19E-10,  avg # of iterations =  4.0

     negative rho (up, down):  1.595E-01 0.000E+00

     total cpu time spent up to now is       28.8 secs

     total energy              =      -2.28144672 Ry
     estimated scf accuracy    <       0.00000022 Ry

     iteration # 68     ecut=    15.00 Ry     beta= 0.70
     Davidson diagonalization with overlap

---- Real-time Memory Report at c_bands before calling an iterative solver
           203 MiB given to the printing process from OS
             0 MiB allocation reported by mallinfo(arena+hblkhd)
          1061 MiB available memory on the node where the printing process lives
------------------
     ethr =  5.19E-10,  avg # of iterations =  4.0

     negative rho (up, down):  1.595E-01 0.000E+00

     total cpu time spent up to now is       29.2 secs

     total energy              =      -2.28143547 Ry
     estimated scf accuracy    <       0.00000002 Ry

     iteration # 69     ecut=    15.00 Ry     beta= 0.70
     Davidson diagonalization with overlap

---- Real-time Memory Report at c_bands before calling an iterative solver
           203 MiB given to the printing process from OS
             0 MiB allocation reported by mallinfo(arena+hblkhd)
          1061 MiB available memory on the node where the printing process lives
------------------
     ethr =  5.19E-10,  avg # of iterations =  4.0

     negative rho (up, down):  1.595E-01 0.000E+00

     total cpu time spent up to now is       29.6 secs

     total energy              =      -2.28144693 Ry
     estimated scf accuracy    <       0.00000006 Ry

     iteration # 70     ecut=    15.00 Ry     beta= 0.70
     Davidson diagonalization with overlap

---- Real-time Memory Report at c_bands before calling an iterative solver
           203 MiB given to the printing process from OS
             0 MiB allocation reported by mallinfo(arena+hblkhd)
          1061 MiB available memory on the node where the printing process lives
------------------
     ethr =  5.19E-10,  avg # of iterations =  5.0

     negative rho (up, down):  1.595E-01 0.000E+00

     total cpu time spent up to now is       30.0 secs

     total energy              =      -2.28146857 Ry
     estimated scf accuracy    <       0.00000027 Ry

     iteration # 71     ecut=    15.00 Ry     beta= 0.70
     Davidson diagonalization with overlap

---- Real-time Memory Report at c_bands before calling an iterative solver
           203 MiB given to the printing process from OS
             0 MiB allocation reported by mallinfo(arena+hblkhd)
          1061 MiB available memory on the node where the printing process lives
------------------
     ethr =  5.19E-10,  avg # of iterations =  4.0

     negative rho (up, down):  1.595E-01 0.000E+00

     total cpu time spent up to now is       30.5 secs

     total energy              =      -2.28146686 Ry
     estimated scf accuracy    <       0.00000006 Ry

     iteration # 72     ecut=    15.00 Ry     beta= 0.70
     Davidson diagonalization with overlap

---- Real-time Memory Report at c_bands before calling an iterative solver
           203 MiB given to the printing process from OS
             0 MiB allocation reported by mallinfo(arena+hblkhd)
          1061 MiB available memory on the node where the printing process lives
------------------
     ethr =  5.19E-10,  avg # of iterations =  4.0

     negative rho (up, down):  1.595E-01 0.000E+00

     total cpu time spent up to now is       30.9 secs

     total energy              =      -2.28147823 Ry
     estimated scf accuracy    <       0.00000009 Ry

     iteration # 73     ecut=    15.00 Ry     beta= 0.70
     Davidson diagonalization with overlap

---- Real-time Memory Report at c_bands before calling an iterative solver
           203 MiB given to the printing process from OS
             0 MiB allocation reported by mallinfo(arena+hblkhd)
          1061 MiB available memory on the node where the printing process lives
------------------
     ethr =  5.19E-10,  avg # of iterations =  4.0

     negative rho (up, down):  1.595E-01 0.000E+00

     total cpu time spent up to now is       31.3 secs

     total energy              =      -2.28146392 Ry
     estimated scf accuracy    <       0.00000008 Ry

     iteration # 74     ecut=    15.00 Ry     beta= 0.70
     Davidson diagonalization with overlap

---- Real-time Memory Report at c_bands before calling an iterative solver
           203 MiB given to the printing process from OS
             0 MiB allocation reported by mallinfo(arena+hblkhd)
          1061 MiB available memory on the node where the printing process lives
------------------
     ethr =  5.19E-10,  avg # of iterations =  4.0

     negative rho (up, down):  1.595E-01 0.000E+00

     total cpu time spent up to now is       31.7 secs

     total energy              =      -2.28147354 Ry
     estimated scf accuracy    <       0.00000006 Ry

     iteration # 75     ecut=    15.00 Ry     beta= 0.70
     Davidson diagonalization with overlap

---- Real-time Memory Report at c_bands before calling an iterative solver
           203 MiB given to the printing process from OS
             0 MiB allocation reported by mallinfo(arena+hblkhd)
          1061 MiB available memory on the node where the printing process lives
------------------
     ethr =  5.19E-10,  avg # of iterations =  4.0

     negative rho (up, down):  1.595E-01 0.000E+00

     total cpu time spent up to now is       32.1 secs

     total energy              =      -2.28146608 Ry
     estimated scf accuracy    <       0.00000006 Ry

     iteration # 76     ecut=    15.00 Ry     beta= 0.70
     Davidson diagonalization with overlap

---- Real-time Memory Report at c_bands before calling an iterative solver
           203 MiB given to the printing process from OS
             0 MiB allocation reported by mallinfo(arena+hblkhd)
          1061 MiB available memory on the node where the printing process lives
------------------
     ethr =  5.19E-10,  avg # of iterations =  3.0

     negative rho (up, down):  1.595E-01 0.000E+00

     total cpu time spent up to now is       32.5 secs

     total energy              =      -2.28146648 Ry
     estimated scf accuracy    <       0.00000008 Ry

     iteration # 77     ecut=    15.00 Ry     beta= 0.70
     Davidson diagonalization with overlap

---- Real-time Memory Report at c_bands before calling an iterative solver
           203 MiB given to the printing process from OS
             0 MiB allocation reported by mallinfo(arena+hblkhd)
          1061 MiB available memory on the node where the printing process lives
------------------
     ethr =  5.19E-10,  avg # of iterations =  2.0

     negative rho (up, down):  1.595E-01 0.000E+00

     total cpu time spent up to now is       32.9 secs

     total energy              =      -2.28145404 Ry
     estimated scf accuracy    <       0.00000007 Ry

     iteration # 78     ecut=    15.00 Ry     beta= 0.70
     Davidson diagonalization with overlap

---- Real-time Memory Report at c_bands before calling an iterative solver
           203 MiB given to the printing process from OS
             0 MiB allocation reported by mallinfo(arena+hblkhd)
          1061 MiB available memory on the node where the printing process lives
------------------
     ethr =  5.19E-10,  avg # of iterations =  4.0

     negative rho (up, down):  1.595E-01 0.000E+00

     total cpu time spent up to now is       33.3 secs

     total energy              =      -2.28145707 Ry
     estimated scf accuracy    <       0.00000004 Ry

     iteration # 79     ecut=    15.00 Ry     beta= 0.70
     Davidson diagonalization with overlap

---- Real-time Memory Report at c_bands before calling an iterative solver
           203 MiB given to the printing process from OS
             0 MiB allocation reported by mallinfo(arena+hblkhd)
          1061 MiB available memory on the node where the printing process lives
------------------
     ethr =  5.19E-10,  avg # of iterations =  4.0

     negative rho (up, down):  1.596E-01 0.000E+00

     total cpu time spent up to now is       33.7 secs

     total energy              =      -2.28142040 Ry
     estimated scf accuracy    <       0.00000001 Ry

     iteration # 80     ecut=    15.00 Ry     beta= 0.70
     Davidson diagonalization with overlap

---- Real-time Memory Report at c_bands before calling an iterative solver
           203 MiB given to the printing process from OS
             0 MiB allocation reported by mallinfo(arena+hblkhd)
          1061 MiB available memory on the node where the printing process lives
------------------
     ethr =  5.19E-10,  avg # of iterations =  4.0

     negative rho (up, down):  1.595E-01 0.000E+00

     total cpu time spent up to now is       34.1 secs

     total energy              =      -2.28143332 Ry
     estimated scf accuracy    <       0.00000011 Ry

     iteration # 81     ecut=    15.00 Ry     beta= 0.70
     Davidson diagonalization with overlap

---- Real-time Memory Report at c_bands before calling an iterative solver
           203 MiB given to the printing process from OS
             0 MiB allocation reported by mallinfo(arena+hblkhd)
          1061 MiB available memory on the node where the printing process lives
------------------
     ethr =  5.19E-10,  avg # of iterations =  4.0

     negative rho (up, down):  1.595E-01 0.000E+00

     total cpu time spent up to now is       34.6 secs

     total energy              =      -2.28145160 Ry
     estimated scf accuracy    <       0.00000006 Ry

     iteration # 82     ecut=    15.00 Ry     beta= 0.70
     Davidson diagonalization with overlap

---- Real-time Memory Report at c_bands before calling an iterative solver
           203 MiB given to the printing process from OS
             0 MiB allocation reported by mallinfo(arena+hblkhd)
          1061 MiB available memory on the node where the printing process lives
------------------
     ethr =  5.19E-10,  avg # of iterations =  4.0

     negative rho (up, down):  1.595E-01 0.000E+00

     total cpu time spent up to now is       35.0 secs

     total energy              =      -2.28145495 Ry
     estimated scf accuracy    <       0.00000001 Ry

     iteration # 83     ecut=    15.00 Ry     beta= 0.70
     Davidson diagonalization with overlap

---- Real-time Memory Report at c_bands before calling an iterative solver
           203 MiB given to the printing process from OS
             0 MiB allocation reported by mallinfo(arena+hblkhd)
          1061 MiB available memory on the node where the printing process lives
------------------
     ethr =  5.19E-10,  avg # of iterations =  2.0

     negative rho (up, down):  1.595E-01 0.000E+00

     total cpu time spent up to now is       35.4 secs

     total energy              =      -2.28143614 Ry
     estimated scf accuracy    <       0.00000002 Ry

     iteration # 84     ecut=    15.00 Ry     beta= 0.70
     Davidson diagonalization with overlap

---- Real-time Memory Report at c_bands before calling an iterative solver
           203 MiB given to the printing process from OS
             0 MiB allocation reported by mallinfo(arena+hblkhd)
          1061 MiB available memory on the node where the printing process lives
------------------
     ethr =  5.19E-10,  avg # of iterations =  4.0

     negative rho (up, down):  1.595E-01 0.000E+00

     total cpu time spent up to now is       35.8 secs

     total energy              =      -2.28144077 Ry
     estimated scf accuracy    <       0.00000002 Ry

     iteration # 85     ecut=    15.00 Ry     beta= 0.70
     Davidson diagonalization with overlap

---- Real-time Memory Report at c_bands before calling an iterative solver
           203 MiB given to the printing process from OS
             0 MiB allocation reported by mallinfo(arena+hblkhd)
          1061 MiB available memory on the node where the printing process lives
------------------
     ethr =  5.19E-10,  avg # of iterations =  3.0

     negative rho (up, down):  1.596E-01 0.000E+00

     total cpu time spent up to now is       36.2 secs

     total energy              =      -2.28142183 Ry
     estimated scf accuracy    <       0.00000003 Ry

     iteration # 86     ecut=    15.00 Ry     beta= 0.70
     Davidson diagonalization with overlap

---- Real-time Memory Report at c_bands before calling an iterative solver
           203 MiB given to the printing process from OS
             0 MiB allocation reported by mallinfo(arena+hblkhd)
          1061 MiB available memory on the node where the printing process lives
------------------
     ethr =  5.19E-10,  avg # of iterations =  5.0

     negative rho (up, down):  1.597E-01 0.000E+00

     total cpu time spent up to now is       36.6 secs

     total energy              =      -2.28136233 Ry
     estimated scf accuracy    <       0.00000044 Ry

     iteration # 87     ecut=    15.00 Ry     beta= 0.70
     Davidson diagonalization with overlap

---- Real-time Memory Report at c_bands before calling an iterative solver
           203 MiB given to the printing process from OS
             0 MiB allocation reported by mallinfo(arena+hblkhd)
          1061 MiB available memory on the node where the printing process lives
------------------
     ethr =  5.19E-10,  avg # of iterations =  4.0

     negative rho (up, down):  1.597E-01 0.000E+00

     total cpu time spent up to now is       37.0 secs

     total energy              =      -2.28134481 Ry
     estimated scf accuracy    <       0.00000046 Ry

     iteration # 88     ecut=    15.00 Ry     beta= 0.70
     Davidson diagonalization with overlap

---- Real-time Memory Report at c_bands before calling an iterative solver
           203 MiB given to the printing process from OS
             0 MiB allocation reported by mallinfo(arena+hblkhd)
          1061 MiB available memory on the node where the printing process lives
------------------
     ethr =  5.19E-10,  avg # of iterations =  4.0

     negative rho (up, down):  1.597E-01 0.000E+00

     total cpu time spent up to now is       37.4 secs

     total energy              =      -2.28135579 Ry
     estimated scf accuracy    <       0.00000076 Ry

     iteration # 89     ecut=    15.00 Ry     beta= 0.70
     Davidson diagonalization with overlap

---- Real-time Memory Report at c_bands before calling an iterative solver
           203 MiB given to the printing process from OS
             0 MiB allocation reported by mallinfo(arena+hblkhd)
          1061 MiB available memory on the node where the printing process lives
------------------
     ethr =  5.19E-10,  avg # of iterations =  4.0

     negative rho (up, down):  1.596E-01 0.000E+00

     total cpu time spent up to now is       37.9 secs

     total energy              =      -2.28139880 Ry
     estimated scf accuracy    <       0.00000047 Ry

     iteration # 90     ecut=    15.00 Ry     beta= 0.70
     Davidson diagonalization with overlap

---- Real-time Memory Report at c_bands before calling an iterative solver
           203 MiB given to the printing process from OS
             0 MiB allocation reported by mallinfo(arena+hblkhd)
          1061 MiB available memory on the node where the printing process lives
------------------
     ethr =  5.19E-10,  avg # of iterations =  4.0

     negative rho (up, down):  1.596E-01 0.000E+00

     total cpu time spent up to now is       38.3 secs

     total energy              =      -2.28141560 Ry
     estimated scf accuracy    <       0.00000053 Ry

     iteration # 91     ecut=    15.00 Ry     beta= 0.70
     Davidson diagonalization with overlap

---- Real-time Memory Report at c_bands before calling an iterative solver
           203 MiB given to the printing process from OS
             0 MiB allocation reported by mallinfo(arena+hblkhd)
          1061 MiB available memory on the node where the printing process lives
------------------
     ethr =  5.19E-10,  avg # of iterations =  4.0

     negative rho (up, down):  1.596E-01 0.000E+00

     total cpu time spent up to now is       38.7 secs

     total energy              =      -2.28141837 Ry
     estimated scf accuracy    <       0.00000030 Ry

     iteration # 92     ecut=    15.00 Ry     beta= 0.70
     Davidson diagonalization with overlap

---- Real-time Memory Report at c_bands before calling an iterative solver
           203 MiB given to the printing process from OS
             0 MiB allocation reported by mallinfo(arena+hblkhd)
          1061 MiB available memory on the node where the printing process lives
------------------
     ethr =  5.19E-10,  avg # of iterations =  2.0

     negative rho (up, down):  1.596E-01 0.000E+00

     total cpu time spent up to now is       39.1 secs

     total energy              =      -2.28141172 Ry
     estimated scf accuracy    <       0.00000029 Ry

     iteration # 93     ecut=    15.00 Ry     beta= 0.70
     Davidson diagonalization with overlap

---- Real-time Memory Report at c_bands before calling an iterative solver
           203 MiB given to the printing process from OS
             0 MiB allocation reported by mallinfo(arena+hblkhd)
          1061 MiB available memory on the node where the printing process lives
------------------
     ethr =  5.19E-10,  avg # of iterations =  3.0

     negative rho (up, down):  1.594E-01 0.000E+00

     total cpu time spent up to now is       39.5 secs

     total energy              =      -2.28151377 Ry
     estimated scf accuracy    <       0.00000035 Ry

     iteration # 94     ecut=    15.00 Ry     beta= 0.70
     Davidson diagonalization with overlap

---- Real-time Memory Report at c_bands before calling an iterative solver
           203 MiB given to the printing process from OS
             0 MiB allocation reported by mallinfo(arena+hblkhd)
          1061 MiB available memory on the node where the printing process lives
------------------
     ethr =  5.19E-10,  avg # of iterations =  5.0

     negative rho (up, down):  1.595E-01 0.000E+00

     total cpu time spent up to now is       39.9 secs

     total energy              =      -2.28142280 Ry
     estimated scf accuracy    <       0.00000008 Ry

     iteration # 95     ecut=    15.00 Ry     beta= 0.70
     Davidson diagonalization with overlap

---- Real-time Memory Report at c_bands before calling an iterative solver
           203 MiB given to the printing process from OS
             0 MiB allocation reported by mallinfo(arena+hblkhd)
          1061 MiB available memory on the node where the printing process lives
------------------
     ethr =  5.19E-10,  avg # of iterations =  5.0

     negative rho (up, down):  1.596E-01 0.000E+00

     total cpu time spent up to now is       40.3 secs

     total energy              =      -2.28142719 Ry
     estimated scf accuracy    <       0.00000026 Ry

     iteration # 96     ecut=    15.00 Ry     beta= 0.70
     Davidson diagonalization with overlap

---- Real-time Memory Report at c_bands before calling an iterative solver
           203 MiB given to the printing process from OS
             0 MiB allocation reported by mallinfo(arena+hblkhd)
          1061 MiB available memory on the node where the printing process lives
------------------
     ethr =  5.19E-10,  avg # of iterations =  4.0

     negative rho (up, down):  1.596E-01 0.000E+00

     total cpu time spent up to now is       40.8 secs

     total energy              =      -2.28139445 Ry
     estimated scf accuracy    <       0.00000045 Ry

     iteration # 97     ecut=    15.00 Ry     beta= 0.70
     Davidson diagonalization with overlap

---- Real-time Memory Report at c_bands before calling an iterative solver
           203 MiB given to the printing process from OS
             0 MiB allocation reported by mallinfo(arena+hblkhd)
          1061 MiB available memory on the node where the printing process lives
------------------
     ethr =  5.19E-10,  avg # of iterations =  4.0

     negative rho (up, down):  1.596E-01 0.000E+00

     total cpu time spent up to now is       41.2 secs

     total energy              =      -2.28139509 Ry
     estimated scf accuracy    <       0.00000034 Ry

     iteration # 98     ecut=    15.00 Ry     beta= 0.70
     Davidson diagonalization with overlap

---- Real-time Memory Report at c_bands before calling an iterative solver
           203 MiB given to the printing process from OS
             0 MiB allocation reported by mallinfo(arena+hblkhd)
          1061 MiB available memory on the node where the printing process lives
------------------
     ethr =  5.19E-10,  avg # of iterations =  3.0

     negative rho (up, down):  1.596E-01 0.000E+00

     total cpu time spent up to now is       41.6 secs

     total energy              =      -2.28138467 Ry
     estimated scf accuracy    <       0.00000033 Ry

     iteration # 99     ecut=    15.00 Ry     beta= 0.70
     Davidson diagonalization with overlap

---- Real-time Memory Report at c_bands before calling an iterative solver
           203 MiB given to the printing process from OS
             0 MiB allocation reported by mallinfo(arena+hblkhd)
          1061 MiB available memory on the node where the printing process lives
------------------
     ethr =  5.19E-10,  avg # of iterations =  5.0

     negative rho (up, down):  1.594E-01 0.000E+00

     total cpu time spent up to now is       42.0 secs

     total energy              =      -2.28153104 Ry
     estimated scf accuracy    <       0.00000042 Ry

     iteration #100     ecut=    15.00 Ry     beta= 0.70
     Davidson diagonalization with overlap

---- Real-time Memory Report at c_bands before calling an iterative solver
           203 MiB given to the printing process from OS
             0 MiB allocation reported by mallinfo(arena+hblkhd)
          1061 MiB available memory on the node where the printing process lives
------------------
     ethr =  5.19E-10,  avg # of iterations =  4.0

     negative rho (up, down):  1.595E-01 0.000E+00

     total cpu time spent up to now is       42.4 secs

     total energy              =      -2.28147715 Ry
     estimated scf accuracy    <       0.00000013 Ry

     End of self-consistent calculation

     convergence NOT achieved after 100 iterations: stopping

     Writing config to output data dir ./.save/
     Message from routine punch:
     wavefunctions written to file

     init_run     :      0.38s CPU      0.40s WALL (       1 calls)
     electrons    :     41.96s CPU     42.07s WALL (       1 calls)

     Called by init_run:
     wfcinit      :      0.03s CPU      0.03s WALL (       1 calls)
     wfcinit:atom :      0.00s CPU      0.00s WALL (       1 calls)
     wfcinit:wfcr :      0.03s CPU      0.03s WALL (       1 calls)
     potinit      :      0.23s CPU      0.24s WALL (       1 calls)
     hinit0       :      0.02s CPU      0.02s WALL (       1 calls)

     Called by electrons:
     c_bands      :      9.86s CPU      9.89s WALL (     100 calls)
     sum_band     :      4.69s CPU      4.70s WALL (     100 calls)
     v_of_rho     :     20.59s CPU     20.63s WALL (     101 calls)
     v_h          :      1.16s CPU      1.16s WALL (     101 calls)
     v_xc         :     19.43s CPU     19.47s WALL (     101 calls)
     newd         :      1.52s CPU      1.53s WALL (     101 calls)
     mix_rho      :      5.11s CPU      5.14s WALL (     100 calls)

     Called by c_bands:
     init_us_2    :      0.14s CPU      0.14s WALL (     201 calls)
     init_us_2:cp :      0.14s CPU      0.14s WALL (     201 calls)
     cegterg      :      9.77s CPU      9.79s WALL (     100 calls)

     Called by sum_band:
     sum_band:wei :      0.00s CPU      0.00s WALL (     100 calls)
     sum_band:loo :      1.39s CPU      1.39s WALL (     100 calls)
     sum_band:buf :      0.00s CPU      0.00s WALL (     100 calls)
     sum_band:ini :      0.07s CPU      0.07s WALL (     100 calls)
     sum_band:cal :      0.02s CPU      0.02s WALL (     100 calls)
     sum_band:bec :      0.00s CPU      0.00s WALL (     100 calls)
     addusdens    :      0.43s CPU      0.43s WALL (     100 calls)
     addusd:skk   :      0.13s CPU      0.13s WALL (     100 calls)
     addusd:dgemm :      0.09s CPU      0.09s WALL (     100 calls)
     addusd:qvan2 :      0.11s CPU      0.11s WALL (     100 calls)

     Called by *egterg:
     cdiaghg      :      0.01s CPU      0.01s WALL (     495 calls)
     cegterg:over :      0.13s CPU      0.13s WALL (     395 calls)
     cegterg:upda :      0.10s CPU      0.10s WALL (     395 calls)
     cegterg:last :      0.21s CPU      0.21s WALL (     291 calls)
     h_psi        :      9.14s CPU      9.16s WALL (     496 calls)
     s_psi        :      0.05s CPU      0.05s WALL (     496 calls)
     g_psi        :      0.05s CPU      0.05s WALL (     395 calls)

     Called by h_psi:
     h_psi:calbec :      0.07s CPU      0.07s WALL (     496 calls)
     vloc_psi     :      8.98s CPU      8.99s WALL (     496 calls)
     add_vuspsi   :      0.06s CPU      0.06s WALL (     496 calls)

     General routines
     calbec       :      0.09s CPU      0.09s WALL (     596 calls)
     fft          :     10.10s CPU     10.12s WALL (    1111 calls)
     ffts         :      0.93s CPU      0.94s WALL (     100 calls)
     fftw         :      9.30s CPU      9.32s WALL (    1626 calls)
     davcio       :      0.01s CPU      0.01s WALL (      19 calls)


     PWSCF        :     42.37s CPU     42.51s WALL


   This run was terminated on:  22:22:25  28Feb2022            

=------------------------------------------------------------------------------=
   JOB DONE.
=------------------------------------------------------------------------------=
