
     Program PWSCF v.7.0 starts on 28Feb2022 at 22:23: 1 

     This program is part of the open-source Quantum ESPRESSO suite
     for quantum simulation of materials; please cite
         "P. Giannozzi et al., J. Phys.:Condens. Matter 21 395502 (2009);
         "P. Giannozzi et al., J. Phys.:Condens. Matter 29 465901 (2017);
         "P. Giannozzi et al., J. Chem. Phys. 152 154105 (2020);
          URL http://www.quantum-espresso.org", 
     in publications or presentations arising from this work. More details at
     http://www.quantum-espresso.org/quote

     Serial version
     1253 MiB available memory on the printing compute node when the environment starts

     Waiting for input...
     Reading input from standard input

     Current dimensions of program PWSCF are:
     Max number of different atomic species (ntypx) = 10
     Max number of k-points (npk) =  40000
     Max angular momentum in pseudopotentials (lmaxx) =  4

    ============================================================
    |  pseudopotential report for atomic species:  1           |
    |        pseudo potential version   7   3   2              |
    ------------------------------------------------------------
    |  hydrogen            PBE                  exchange-corr  |
    |  z =   1.    zv( 1) =   1.    exfact =   5.00000         |
    |  ifpcor =  0           atomic energy =  -0.91772 Ry      |
    |  index    orbital      occupation    energy              |
    |    1        100           1.00       -0.48               |
    |  rinner =  0.5000                                        |
    |    new generation scheme:                                |
    |    nbeta =  1     kkbeta =  271     rcloc =    0.6000    |
    |    ibeta    l     epsilon   rcut                         |
    |      1       0      -0.48   0.80                         |
    ============================================================

     IMPORTANT: XC functional enforced from input :
     Exchange-correlation= BLYP
                           (   1   3   1   3   0   0   0)
     Any further DFT definition will be discarded
     Please, verify this is what you really want


     G-vector sticks info
     --------------------
     sticks:   dense  smooth     PW     G-vecs:    dense   smooth      PW
     Sum        4281    4281   1185               211657   211657   30551

     Using Slab Decomposition



     bravais-lattice index     =            1
     lattice parameter (alat)  =      30.0000  a.u.
     unit-cell volume          =   27000.0000 (a.u.)^3
     number of atoms/cell      =            2
     number of atomic types    =            1
     number of electrons       =         2.00
     number of Kohn-Sham states=            2
     kinetic-energy cutoff     =      15.0000  Ry
     charge density cutoff     =      60.0000  Ry
     scf convergence threshold =      1.0E-08
     mixing beta               =       0.7000
     number of iterations used =            8  plain     mixing
     Exchange-correlation= BLYP
                           (   1   3   1   3   0   0   0)

     celldm(1)=  30.000000  celldm(2)=   0.000000  celldm(3)=   0.000000
     celldm(4)=   0.000000  celldm(5)=   0.000000  celldm(6)=   0.000000

     crystal axes: (cart. coord. in units of alat)
               a(1) = (   1.000000   0.000000   0.000000 )  
               a(2) = (   0.000000   1.000000   0.000000 )  
               a(3) = (   0.000000   0.000000   1.000000 )  

     reciprocal axes: (cart. coord. in units 2 pi/alat)
               b(1) = (  1.000000  0.000000  0.000000 )  
               b(2) = (  0.000000  1.000000  0.000000 )  
               b(3) = (  0.000000  0.000000  1.000000 )  


     PseudoPot. # 1 for hy read from file:
     /root/q-e/pseudo/H_US.van
     MD5 check sum: a9a9bfe98ff56cf4de197d71fc46bb44
     Pseudo is Ultrasoft, Zval =  1.0
     Generated by Vanderbilt code, v. 7.3.2
     Using radial grid of  399 points,  1 beta functions with: 
                l(1) =   0
     Q(r) pseudized with  8 coefficients,  rinner =    0.500

     atomic species   valence    mass     pseudopotential
        H              1.00     1.00784     hy( 1.00)

      8 Sym. Ops. (no inversion) found


                                    s                        frac. trans.

      isym =  1     identity                                     

 cryst.   s( 1) = (     1          0          0      )
                  (     0          1          0      )
                  (     0          0          1      )

 cart.    s( 1) = (  1.0000000  0.0000000  0.0000000 )
                  (  0.0000000  1.0000000  0.0000000 )
                  (  0.0000000  0.0000000  1.0000000 )


      isym =  2     180 deg rotation - cart. axis [1,0,0]        

 cryst.   s( 2) = (     1          0          0      )
                  (     0         -1          0      )
                  (     0          0         -1      )

 cart.    s( 2) = (  1.0000000  0.0000000  0.0000000 )
                  (  0.0000000 -1.0000000  0.0000000 )
                  (  0.0000000  0.0000000 -1.0000000 )


      isym =  3      90 deg rotation - cart. axis [-1,0,0]       

 cryst.   s( 3) = (     1          0          0      )
                  (     0          0         -1      )
                  (     0          1          0      )

 cart.    s( 3) = (  1.0000000  0.0000000  0.0000000 )
                  (  0.0000000  0.0000000  1.0000000 )
                  (  0.0000000 -1.0000000  0.0000000 )


      isym =  4      90 deg rotation - cart. axis [1,0,0]        

 cryst.   s( 4) = (     1          0          0      )
                  (     0          0          1      )
                  (     0         -1          0      )

 cart.    s( 4) = (  1.0000000  0.0000000  0.0000000 )
                  (  0.0000000  0.0000000 -1.0000000 )
                  (  0.0000000  1.0000000  0.0000000 )


      isym =  5     inv. 180 deg rotation - cart. axis [0,0,1]   

 cryst.   s( 5) = (     1          0          0      )
                  (     0          1          0      )
                  (     0          0         -1      )

 cart.    s( 5) = (  1.0000000  0.0000000  0.0000000 )
                  (  0.0000000  1.0000000  0.0000000 )
                  (  0.0000000  0.0000000 -1.0000000 )


      isym =  6     inv. 180 deg rotation - cart. axis [0,1,0]   

 cryst.   s( 6) = (     1          0          0      )
                  (     0         -1          0      )
                  (     0          0          1      )

 cart.    s( 6) = (  1.0000000  0.0000000  0.0000000 )
                  (  0.0000000 -1.0000000  0.0000000 )
                  (  0.0000000  0.0000000  1.0000000 )


      isym =  7     inv. 180 deg rotation - cart. axis [0,1,1]   

 cryst.   s( 7) = (     1          0          0      )
                  (     0          0         -1      )
                  (     0         -1          0      )

 cart.    s( 7) = (  1.0000000  0.0000000  0.0000000 )
                  (  0.0000000  0.0000000 -1.0000000 )
                  (  0.0000000 -1.0000000  0.0000000 )


      isym =  8     inv. 180 deg rotation - cart. axis [0,1,-1]  

 cryst.   s( 8) = (     1          0          0      )
                  (     0          0          1      )
                  (     0          1          0      )

 cart.    s( 8) = (  1.0000000  0.0000000  0.0000000 )
                  (  0.0000000  0.0000000  1.0000000 )
                  (  0.0000000  1.0000000  0.0000000 )


     point group C_4v (4mm) 
     there are  5 classes
     the character table:

       E     2C4   C2    2s_v  2s_d 
A_1    1.00  1.00  1.00  1.00  1.00
A_2    1.00  1.00  1.00 -1.00 -1.00
B_1    1.00 -1.00  1.00  1.00 -1.00
B_2    1.00 -1.00  1.00 -1.00  1.00
E      2.00  0.00 -2.00  0.00  0.00

     the symmetry operations in each class and the name of the first element:

     E        1
          identity                                               
     2C4      3    4
           90 deg rotation - cart. axis [-1,0,0]                 
     C2       2
          180 deg rotation - cart. axis [1,0,0]                  
     2s_v     5    6
          inv. 180 deg rotation - cart. axis [0,0,1]             
     2s_d     7    8
          inv. 180 deg rotation - cart. axis [0,1,1]             

   Cartesian axes

     site n.     atom                  positions (alat units)
         1           H   tau(   1) = (   0.0000000   0.0000000   0.0000000  )
         2           H   tau(   2) = (   0.2834589   0.0000000   0.0000000  )

   Crystallographic axes

     site n.     atom                  positions (cryst. coord.)
         1           H   tau(   1) = (  0.0000000  0.0000000  0.0000000  )
         2           H   tau(   2) = (  0.2834589  0.0000000  0.0000000  )

     number of k points=     1
                       cart. coord. in units 2pi/alat
        k(    1) = (  -0.5000000  -0.5000000  -0.5000000), wk =   2.0000000

                       cryst. coord.
        k(    1) = (  -0.5000000  -0.5000000  -0.5000000), wk =   2.0000000

     Dense  grid:   211657 G-vectors     FFT dimensions: (  75,  75,  75)

     Dynamical RAM for                 wfc:       0.81 MB

     Dynamical RAM for     wfc (w. buffer):       0.81 MB

     Dynamical RAM for           str. fact:       3.23 MB

     Dynamical RAM for           local pot:       0.00 MB

     Dynamical RAM for          nlocal pot:       0.81 MB

     Dynamical RAM for                qrad:       0.01 MB

     Dynamical RAM for          rho,v,vnew:      19.34 MB

     Dynamical RAM for               rhoin:       6.45 MB

     Dynamical RAM for            rho*nmix:      51.67 MB

     Dynamical RAM for           G-vectors:      13.73 MB

     Dynamical RAM for          h,s,v(r/c):       0.00 MB

     Dynamical RAM for          <psi|beta>:       0.00 MB

     Dynamical RAM for                 psi:       1.62 MB

     Dynamical RAM for                hpsi:       1.62 MB

     Dynamical RAM for                spsi:       1.62 MB

     Dynamical RAM for      wfcinit/wfcrot:       1.62 MB

     Dynamical RAM for           addusdens:      19.38 MB

     Estimated static dynamical RAM per process >      66.92 MB

     Estimated max dynamical RAM per process >     137.98 MB

     Initial potential from superposition of free atoms

     starting charge       2.0000, renormalised to       2.0000

     negative rho (up, down):  1.046E-01 0.000E+00
     Starting wfcs are    2 randomized atomic wfcs

     total cpu time spent up to now is        0.4 secs

     Self-consistent Calculation

     iteration #  1     ecut=    15.00 Ry     beta= 0.70
     Davidson diagonalization with overlap

---- Real-time Memory Report at c_bands before calling an iterative solver
           123 MiB given to the printing process from OS
             0 MiB allocation reported by mallinfo(arena+hblkhd)
          1171 MiB available memory on the node where the printing process lives
------------------
     ethr =  1.00E-02,  avg # of iterations =  1.0

     Threshold (ethr) on eigenvalues was too large:
     Diagonalizing with lowered threshold

     Davidson diagonalization with overlap

---- Real-time Memory Report at c_bands before calling an iterative solver
           123 MiB given to the printing process from OS
             0 MiB allocation reported by mallinfo(arena+hblkhd)
          1171 MiB available memory on the node where the printing process lives
------------------
     ethr =  2.23E-04,  avg # of iterations =  1.0

     negative rho (up, down):  9.885E-02 0.000E+00

     total cpu time spent up to now is        0.9 secs

     total energy              =      -1.82930705 Ry
     estimated scf accuracy    <       0.00444511 Ry

     iteration #  2     ecut=    15.00 Ry     beta= 0.70
     Davidson diagonalization with overlap

---- Real-time Memory Report at c_bands before calling an iterative solver
           152 MiB given to the printing process from OS
             0 MiB allocation reported by mallinfo(arena+hblkhd)
          1113 MiB available memory on the node where the printing process lives
------------------
     ethr =  2.22E-04,  avg # of iterations =  2.0

     negative rho (up, down):  9.893E-02 0.000E+00

     total cpu time spent up to now is        1.2 secs

     total energy              =      -1.83061013 Ry
     estimated scf accuracy    <       1.03311105 Ry

     iteration #  3     ecut=    15.00 Ry     beta= 0.70
     Davidson diagonalization with overlap

---- Real-time Memory Report at c_bands before calling an iterative solver
           158 MiB given to the printing process from OS
             0 MiB allocation reported by mallinfo(arena+hblkhd)
          1107 MiB available memory on the node where the printing process lives
------------------
     ethr =  2.22E-04,  avg # of iterations =  1.0

     negative rho (up, down):  9.794E-02 0.000E+00

     total cpu time spent up to now is        1.6 secs

     total energy              =      -1.82411120 Ry
     estimated scf accuracy    <       0.27729002 Ry

     iteration #  4     ecut=    15.00 Ry     beta= 0.70
     Davidson diagonalization with overlap

---- Real-time Memory Report at c_bands before calling an iterative solver
           165 MiB given to the printing process from OS
             0 MiB allocation reported by mallinfo(arena+hblkhd)
          1100 MiB available memory on the node where the printing process lives
------------------
     ethr =  2.22E-04,  avg # of iterations =  1.0

     negative rho (up, down):  9.695E-02 0.000E+00

     total cpu time spent up to now is        2.1 secs

     total energy              =      -1.85679708 Ry
     estimated scf accuracy    <       0.83405763 Ry

     iteration #  5     ecut=    15.00 Ry     beta= 0.70
     Davidson diagonalization with overlap

---- Real-time Memory Report at c_bands before calling an iterative solver
           171 MiB given to the printing process from OS
             0 MiB allocation reported by mallinfo(arena+hblkhd)
          1094 MiB available memory on the node where the printing process lives
------------------
     ethr =  2.22E-04,  avg # of iterations =  1.0

     negative rho (up, down):  9.723E-02 0.000E+00

     total cpu time spent up to now is        2.5 secs

     total energy              =      -1.86049113 Ry
     estimated scf accuracy    <       0.93786209 Ry

     iteration #  6     ecut=    15.00 Ry     beta= 0.70
     Davidson diagonalization with overlap

---- Real-time Memory Report at c_bands before calling an iterative solver
           178 MiB given to the printing process from OS
             0 MiB allocation reported by mallinfo(arena+hblkhd)
          1087 MiB available memory on the node where the printing process lives
------------------
     ethr =  2.22E-04,  avg # of iterations =  1.0

     negative rho (up, down):  9.623E-02 0.000E+00

     total cpu time spent up to now is        3.1 secs

     total energy              =      -1.85415541 Ry
     estimated scf accuracy    <       0.95046106 Ry

     iteration #  7     ecut=    15.00 Ry     beta= 0.70
     Davidson diagonalization with overlap

---- Real-time Memory Report at c_bands before calling an iterative solver
           184 MiB given to the printing process from OS
             0 MiB allocation reported by mallinfo(arena+hblkhd)
          1081 MiB available memory on the node where the printing process lives
------------------
     ethr =  2.22E-04,  avg # of iterations =  1.0

     negative rho (up, down):  1.007E-01 0.000E+00

     total cpu time spent up to now is        3.6 secs

     total energy              =      -1.87868460 Ry
     estimated scf accuracy    <       0.92579444 Ry

     iteration #  8     ecut=    15.00 Ry     beta= 0.70
     Davidson diagonalization with overlap

---- Real-time Memory Report at c_bands before calling an iterative solver
           190 MiB given to the printing process from OS
             0 MiB allocation reported by mallinfo(arena+hblkhd)
          1074 MiB available memory on the node where the printing process lives
------------------
     ethr =  2.22E-04,  avg # of iterations =  1.0

     negative rho (up, down):  1.001E-01 0.000E+00

     total cpu time spent up to now is        4.2 secs

     total energy              =      -1.86910171 Ry
     estimated scf accuracy    <       0.99534685 Ry

     iteration #  9     ecut=    15.00 Ry     beta= 0.70
     Davidson diagonalization with overlap

---- Real-time Memory Report at c_bands before calling an iterative solver
           197 MiB given to the printing process from OS
             0 MiB allocation reported by mallinfo(arena+hblkhd)
          1068 MiB available memory on the node where the printing process lives
------------------
     ethr =  2.22E-04,  avg # of iterations =  1.0

     negative rho (up, down):  1.001E-01 0.000E+00

     total cpu time spent up to now is        4.7 secs

     total energy              =      -1.86914595 Ry
     estimated scf accuracy    <       0.97564097 Ry

     iteration # 10     ecut=    15.00 Ry     beta= 0.70
     Davidson diagonalization with overlap

---- Real-time Memory Report at c_bands before calling an iterative solver
           203 MiB given to the printing process from OS
             0 MiB allocation reported by mallinfo(arena+hblkhd)
          1061 MiB available memory on the node where the printing process lives
------------------
     ethr =  2.22E-04,  avg # of iterations =  1.0

     negative rho (up, down):  1.001E-01 0.000E+00

     total cpu time spent up to now is        5.2 secs

     total energy              =      -1.87460300 Ry
     estimated scf accuracy    <       0.97525254 Ry

     iteration # 11     ecut=    15.00 Ry     beta= 0.70
     Davidson diagonalization with overlap

---- Real-time Memory Report at c_bands before calling an iterative solver
           203 MiB given to the printing process from OS
             0 MiB allocation reported by mallinfo(arena+hblkhd)
          1062 MiB available memory on the node where the printing process lives
------------------
     ethr =  2.22E-04,  avg # of iterations =  1.0

     negative rho (up, down):  1.004E-01 0.000E+00

     total cpu time spent up to now is        5.7 secs

     total energy              =      -1.85893604 Ry
     estimated scf accuracy    <       0.98654350 Ry

     iteration # 12     ecut=    15.00 Ry     beta= 0.70
     Davidson diagonalization with overlap

---- Real-time Memory Report at c_bands before calling an iterative solver
           203 MiB given to the printing process from OS
             0 MiB allocation reported by mallinfo(arena+hblkhd)
          1062 MiB available memory on the node where the printing process lives
------------------
     ethr =  2.22E-04,  avg # of iterations =  1.0

     negative rho (up, down):  7.483E-02 0.000E+00

     total cpu time spent up to now is        6.2 secs

     total energy              =      -1.48979182 Ry
     estimated scf accuracy    <       0.94792054 Ry

     iteration # 13     ecut=    15.00 Ry     beta= 0.70
     Davidson diagonalization with overlap

---- Real-time Memory Report at c_bands before calling an iterative solver
           203 MiB given to the printing process from OS
             0 MiB allocation reported by mallinfo(arena+hblkhd)
          1062 MiB available memory on the node where the printing process lives
------------------
     ethr =  2.22E-04,  avg # of iterations =  2.0

     negative rho (up, down):  9.123E-02 0.000E+00

     total cpu time spent up to now is        6.7 secs

     total energy              =      -2.37192120 Ry
     estimated scf accuracy    <       1.77122066 Ry

     iteration # 14     ecut=    15.00 Ry     beta= 0.70
     Davidson diagonalization with overlap

---- Real-time Memory Report at c_bands before calling an iterative solver
           203 MiB given to the printing process from OS
             0 MiB allocation reported by mallinfo(arena+hblkhd)
          1062 MiB available memory on the node where the printing process lives
------------------
     ethr =  2.22E-04,  avg # of iterations =  2.0

     negative rho (up, down):  1.036E-01 0.000E+00

     total cpu time spent up to now is        7.1 secs

     total energy              =      -2.32822443 Ry
     estimated scf accuracy    <       1.77044998 Ry

     iteration # 15     ecut=    15.00 Ry     beta= 0.70
     Davidson diagonalization with overlap

---- Real-time Memory Report at c_bands before calling an iterative solver
           203 MiB given to the printing process from OS
             0 MiB allocation reported by mallinfo(arena+hblkhd)
          1062 MiB available memory on the node where the printing process lives
------------------
     ethr =  2.22E-04,  avg # of iterations =  1.0

     negative rho (up, down):  1.064E-01 0.000E+00

     total cpu time spent up to now is        7.6 secs

     total energy              =      -2.10789360 Ry
     estimated scf accuracy    <       1.69497087 Ry

     iteration # 16     ecut=    15.00 Ry     beta= 0.70
     Davidson diagonalization with overlap

---- Real-time Memory Report at c_bands before calling an iterative solver
           203 MiB given to the printing process from OS
             0 MiB allocation reported by mallinfo(arena+hblkhd)
          1062 MiB available memory on the node where the printing process lives
------------------
     ethr =  2.22E-04,  avg # of iterations =  2.0

     negative rho (up, down):  1.057E-01 0.000E+00

     total cpu time spent up to now is        8.0 secs

     total energy              =      -1.99654854 Ry
     estimated scf accuracy    <       1.36318206 Ry

     iteration # 17     ecut=    15.00 Ry     beta= 0.70
     Davidson diagonalization with overlap

---- Real-time Memory Report at c_bands before calling an iterative solver
           203 MiB given to the printing process from OS
             0 MiB allocation reported by mallinfo(arena+hblkhd)
          1062 MiB available memory on the node where the printing process lives
------------------
     ethr =  2.22E-04,  avg # of iterations =  2.0

     negative rho (up, down):  1.034E-01 0.000E+00

     total cpu time spent up to now is        8.5 secs

     total energy              =      -1.91431959 Ry
     estimated scf accuracy    <       1.19069692 Ry

     iteration # 18     ecut=    15.00 Ry     beta= 0.70
     Davidson diagonalization with overlap

---- Real-time Memory Report at c_bands before calling an iterative solver
           203 MiB given to the printing process from OS
             0 MiB allocation reported by mallinfo(arena+hblkhd)
          1062 MiB available memory on the node where the printing process lives
------------------
     ethr =  2.22E-04,  avg # of iterations =  1.0

     negative rho (up, down):  9.947E-02 0.000E+00

     total cpu time spent up to now is        8.9 secs

     total energy              =      -1.86654992 Ry
     estimated scf accuracy    <       1.06140347 Ry

     iteration # 19     ecut=    15.00 Ry     beta= 0.70
     Davidson diagonalization with overlap

---- Real-time Memory Report at c_bands before calling an iterative solver
           203 MiB given to the printing process from OS
             0 MiB allocation reported by mallinfo(arena+hblkhd)
          1062 MiB available memory on the node where the printing process lives
------------------
     ethr =  2.22E-04,  avg # of iterations =  1.0

     negative rho (up, down):  9.929E-02 0.000E+00

     total cpu time spent up to now is        9.3 secs

     total energy              =      -1.86353982 Ry
     estimated scf accuracy    <       0.97180973 Ry

     iteration # 20     ecut=    15.00 Ry     beta= 0.70
     Davidson diagonalization with overlap

---- Real-time Memory Report at c_bands before calling an iterative solver
           203 MiB given to the printing process from OS
             0 MiB allocation reported by mallinfo(arena+hblkhd)
          1062 MiB available memory on the node where the printing process lives
------------------
     ethr =  2.22E-04,  avg # of iterations =  1.0

     negative rho (up, down):  1.002E-01 0.000E+00

     total cpu time spent up to now is        9.8 secs

     total energy              =      -1.83101217 Ry
     estimated scf accuracy    <       0.96318818 Ry

     iteration # 21     ecut=    15.00 Ry     beta= 0.70
     Davidson diagonalization with overlap

---- Real-time Memory Report at c_bands before calling an iterative solver
           203 MiB given to the printing process from OS
             0 MiB allocation reported by mallinfo(arena+hblkhd)
          1062 MiB available memory on the node where the printing process lives
------------------
     ethr =  2.22E-04,  avg # of iterations =  1.0

     negative rho (up, down):  9.336E-02 0.000E+00

     total cpu time spent up to now is       10.2 secs

     total energy              =      -1.81346567 Ry
     estimated scf accuracy    <       0.33019526 Ry

     iteration # 22     ecut=    15.00 Ry     beta= 0.70
     Davidson diagonalization with overlap

---- Real-time Memory Report at c_bands before calling an iterative solver
           203 MiB given to the printing process from OS
             0 MiB allocation reported by mallinfo(arena+hblkhd)
          1062 MiB available memory on the node where the printing process lives
------------------
     ethr =  2.22E-04,  avg # of iterations =  2.0

     negative rho (up, down):  9.826E-02 0.000E+00

     total cpu time spent up to now is       10.7 secs

     total energy              =      -1.83350239 Ry
     estimated scf accuracy    <       0.97198635 Ry

     iteration # 23     ecut=    15.00 Ry     beta= 0.70
     Davidson diagonalization with overlap

---- Real-time Memory Report at c_bands before calling an iterative solver
           203 MiB given to the printing process from OS
             0 MiB allocation reported by mallinfo(arena+hblkhd)
          1062 MiB available memory on the node where the printing process lives
------------------
     ethr =  2.22E-04,  avg # of iterations =  1.0

     negative rho (up, down):  9.855E-02 0.000E+00

     total cpu time spent up to now is       11.1 secs

     total energy              =      -1.82761655 Ry
     estimated scf accuracy    <       0.47933785 Ry

     iteration # 24     ecut=    15.00 Ry     beta= 0.70
     Davidson diagonalization with overlap

---- Real-time Memory Report at c_bands before calling an iterative solver
           203 MiB given to the printing process from OS
             0 MiB allocation reported by mallinfo(arena+hblkhd)
          1062 MiB available memory on the node where the printing process lives
------------------
     ethr =  2.22E-04,  avg # of iterations =  1.0

     negative rho (up, down):  9.810E-02 0.000E+00

     total cpu time spent up to now is       11.5 secs

     total energy              =      -1.82864339 Ry
     estimated scf accuracy    <       0.37831801 Ry

     iteration # 25     ecut=    15.00 Ry     beta= 0.70
     Davidson diagonalization with overlap

---- Real-time Memory Report at c_bands before calling an iterative solver
           203 MiB given to the printing process from OS
             0 MiB allocation reported by mallinfo(arena+hblkhd)
          1062 MiB available memory on the node where the printing process lives
------------------
     ethr =  2.22E-04,  avg # of iterations =  1.0

     negative rho (up, down):  9.814E-02 0.000E+00

     total cpu time spent up to now is       12.0 secs

     total energy              =      -1.83348465 Ry
     estimated scf accuracy    <       0.37991502 Ry

     iteration # 26     ecut=    15.00 Ry     beta= 0.70
     Davidson diagonalization with overlap

---- Real-time Memory Report at c_bands before calling an iterative solver
           203 MiB given to the printing process from OS
             0 MiB allocation reported by mallinfo(arena+hblkhd)
          1062 MiB available memory on the node where the printing process lives
------------------
     ethr =  2.22E-04,  avg # of iterations =  1.0

     negative rho (up, down):  9.796E-02 0.000E+00

     total cpu time spent up to now is       12.4 secs

     total energy              =      -1.83467983 Ry
     estimated scf accuracy    <       0.20462633 Ry

     iteration # 27     ecut=    15.00 Ry     beta= 0.70
     Davidson diagonalization with overlap

---- Real-time Memory Report at c_bands before calling an iterative solver
           203 MiB given to the printing process from OS
             0 MiB allocation reported by mallinfo(arena+hblkhd)
          1062 MiB available memory on the node where the printing process lives
------------------
     ethr =  2.22E-04,  avg # of iterations =  1.0

     negative rho (up, down):  9.803E-02 0.000E+00

     total cpu time spent up to now is       12.8 secs

     total energy              =      -1.83257284 Ry
     estimated scf accuracy    <       0.41417033 Ry

     iteration # 28     ecut=    15.00 Ry     beta= 0.70
     Davidson diagonalization with overlap

---- Real-time Memory Report at c_bands before calling an iterative solver
           203 MiB given to the printing process from OS
             0 MiB allocation reported by mallinfo(arena+hblkhd)
          1062 MiB available memory on the node where the printing process lives
------------------
     ethr =  2.22E-04,  avg # of iterations =  1.0

     negative rho (up, down):  9.803E-02 0.000E+00

     total cpu time spent up to now is       13.2 secs

     total energy              =      -1.83299752 Ry
     estimated scf accuracy    <       0.07128366 Ry

     iteration # 29     ecut=    15.00 Ry     beta= 0.70
     Davidson diagonalization with overlap

---- Real-time Memory Report at c_bands before calling an iterative solver
           203 MiB given to the printing process from OS
             0 MiB allocation reported by mallinfo(arena+hblkhd)
          1062 MiB available memory on the node where the printing process lives
------------------
     ethr =  2.22E-04,  avg # of iterations =  1.0

     negative rho (up, down):  9.781E-02 0.000E+00

     total cpu time spent up to now is       13.7 secs

     total energy              =      -1.83365580 Ry
     estimated scf accuracy    <       0.03205089 Ry

     iteration # 30     ecut=    15.00 Ry     beta= 0.70
     Davidson diagonalization with overlap

---- Real-time Memory Report at c_bands before calling an iterative solver
           203 MiB given to the printing process from OS
             0 MiB allocation reported by mallinfo(arena+hblkhd)
          1062 MiB available memory on the node where the printing process lives
------------------
     ethr =  2.22E-04,  avg # of iterations =  1.0

     negative rho (up, down):  9.772E-02 0.000E+00

     total cpu time spent up to now is       14.1 secs

     total energy              =      -1.83283912 Ry
     estimated scf accuracy    <       0.30449144 Ry

     iteration # 31     ecut=    15.00 Ry     beta= 0.70
     Davidson diagonalization with overlap

---- Real-time Memory Report at c_bands before calling an iterative solver
           203 MiB given to the printing process from OS
             0 MiB allocation reported by mallinfo(arena+hblkhd)
          1062 MiB available memory on the node where the printing process lives
------------------
     ethr =  2.22E-04,  avg # of iterations =  1.0

     negative rho (up, down):  9.780E-02 0.000E+00

     total cpu time spent up to now is       14.5 secs

     total energy              =      -1.83295930 Ry
     estimated scf accuracy    <       0.05045684 Ry

     iteration # 32     ecut=    15.00 Ry     beta= 0.70
     Davidson diagonalization with overlap

---- Real-time Memory Report at c_bands before calling an iterative solver
           203 MiB given to the printing process from OS
             0 MiB allocation reported by mallinfo(arena+hblkhd)
          1062 MiB available memory on the node where the printing process lives
------------------
     ethr =  2.22E-04,  avg # of iterations =  1.0

     negative rho (up, down):  9.775E-02 0.000E+00

     total cpu time spent up to now is       14.9 secs

     total energy              =      -1.83308424 Ry
     estimated scf accuracy    <       0.00203799 Ry

     iteration # 33     ecut=    15.00 Ry     beta= 0.70
     Davidson diagonalization with overlap

---- Real-time Memory Report at c_bands before calling an iterative solver
           203 MiB given to the printing process from OS
             0 MiB allocation reported by mallinfo(arena+hblkhd)
          1062 MiB available memory on the node where the printing process lives
------------------
     ethr =  1.02E-04,  avg # of iterations =  1.0

     negative rho (up, down):  9.746E-02 0.000E+00

     total cpu time spent up to now is       15.4 secs

     total energy              =      -1.83327263 Ry
     estimated scf accuracy    <       0.00187834 Ry

     iteration # 34     ecut=    15.00 Ry     beta= 0.70
     Davidson diagonalization with overlap

---- Real-time Memory Report at c_bands before calling an iterative solver
           203 MiB given to the printing process from OS
             0 MiB allocation reported by mallinfo(arena+hblkhd)
          1062 MiB available memory on the node where the printing process lives
------------------
     ethr =  9.39E-05,  avg # of iterations =  1.0

     negative rho (up, down):  9.722E-02 0.000E+00

     total cpu time spent up to now is       15.8 secs

     total energy              =      -1.83337944 Ry
     estimated scf accuracy    <       0.06863881 Ry

     iteration # 35     ecut=    15.00 Ry     beta= 0.70
     Davidson diagonalization with overlap

---- Real-time Memory Report at c_bands before calling an iterative solver
           203 MiB given to the printing process from OS
             0 MiB allocation reported by mallinfo(arena+hblkhd)
          1062 MiB available memory on the node where the printing process lives
------------------
     ethr =  9.39E-05,  avg # of iterations =  1.0

     negative rho (up, down):  9.706E-02 0.000E+00

     total cpu time spent up to now is       16.2 secs

     total energy              =      -1.83342947 Ry
     estimated scf accuracy    <       0.01654674 Ry

     iteration # 36     ecut=    15.00 Ry     beta= 0.70
     Davidson diagonalization with overlap

---- Real-time Memory Report at c_bands before calling an iterative solver
           203 MiB given to the printing process from OS
             0 MiB allocation reported by mallinfo(arena+hblkhd)
          1062 MiB available memory on the node where the printing process lives
------------------
     ethr =  9.39E-05,  avg # of iterations =  1.0

     negative rho (up, down):  9.705E-02 0.000E+00

     total cpu time spent up to now is       16.5 secs

     total energy              =      -1.83349027 Ry
     estimated scf accuracy    <       0.00000821 Ry

     iteration # 37     ecut=    15.00 Ry     beta= 0.70
     Davidson diagonalization with overlap

---- Real-time Memory Report at c_bands before calling an iterative solver
           203 MiB given to the printing process from OS
             0 MiB allocation reported by mallinfo(arena+hblkhd)
          1062 MiB available memory on the node where the printing process lives
------------------
     ethr =  4.10E-07,  avg # of iterations =  1.0

     negative rho (up, down):  9.708E-02 0.000E+00

     total cpu time spent up to now is       16.9 secs

     total energy              =      -1.83347873 Ry
     estimated scf accuracy    <       0.00009840 Ry

     iteration # 38     ecut=    15.00 Ry     beta= 0.70
     Davidson diagonalization with overlap

---- Real-time Memory Report at c_bands before calling an iterative solver
           203 MiB given to the printing process from OS
             0 MiB allocation reported by mallinfo(arena+hblkhd)
          1062 MiB available memory on the node where the printing process lives
------------------
     ethr =  4.10E-07,  avg # of iterations =  1.0

     negative rho (up, down):  9.708E-02 0.000E+00

     total cpu time spent up to now is       17.3 secs

     total energy              =      -1.83347526 Ry
     estimated scf accuracy    <       0.00003131 Ry

     iteration # 39     ecut=    15.00 Ry     beta= 0.70
     Davidson diagonalization with overlap

---- Real-time Memory Report at c_bands before calling an iterative solver
           203 MiB given to the printing process from OS
             0 MiB allocation reported by mallinfo(arena+hblkhd)
          1062 MiB available memory on the node where the printing process lives
------------------
     ethr =  4.10E-07,  avg # of iterations =  1.0

     negative rho (up, down):  9.708E-02 0.000E+00

     total cpu time spent up to now is       17.6 secs

     total energy              =      -1.83347762 Ry
     estimated scf accuracy    <       0.00000248 Ry

     iteration # 40     ecut=    15.00 Ry     beta= 0.70
     Davidson diagonalization with overlap

---- Real-time Memory Report at c_bands before calling an iterative solver
           203 MiB given to the printing process from OS
             0 MiB allocation reported by mallinfo(arena+hblkhd)
          1062 MiB available memory on the node where the printing process lives
------------------
     ethr =  1.24E-07,  avg # of iterations =  2.0

     negative rho (up, down):  9.707E-02 0.000E+00

     total cpu time spent up to now is       18.0 secs

     total energy              =      -1.83348325 Ry
     estimated scf accuracy    <       0.00000186 Ry

     iteration # 41     ecut=    15.00 Ry     beta= 0.70
     Davidson diagonalization with overlap

---- Real-time Memory Report at c_bands before calling an iterative solver
           203 MiB given to the printing process from OS
             0 MiB allocation reported by mallinfo(arena+hblkhd)
          1062 MiB available memory on the node where the printing process lives
------------------
     ethr =  9.28E-08,  avg # of iterations =  1.0

     negative rho (up, down):  9.710E-02 0.000E+00

     total cpu time spent up to now is       18.4 secs

     total energy              =      -1.83345993 Ry
     estimated scf accuracy    <       0.00002162 Ry

     iteration # 42     ecut=    15.00 Ry     beta= 0.70
     Davidson diagonalization with overlap

---- Real-time Memory Report at c_bands before calling an iterative solver
           203 MiB given to the printing process from OS
             0 MiB allocation reported by mallinfo(arena+hblkhd)
          1062 MiB available memory on the node where the printing process lives
------------------
     ethr =  9.28E-08,  avg # of iterations =  2.0

     negative rho (up, down):  9.710E-02 0.000E+00

     total cpu time spent up to now is       18.8 secs

     total energy              =      -1.83346811 Ry
     estimated scf accuracy    <       0.00000097 Ry

     iteration # 43     ecut=    15.00 Ry     beta= 0.70
     Davidson diagonalization with overlap

---- Real-time Memory Report at c_bands before calling an iterative solver
           203 MiB given to the printing process from OS
             0 MiB allocation reported by mallinfo(arena+hblkhd)
          1062 MiB available memory on the node where the printing process lives
------------------
     ethr =  4.86E-08,  avg # of iterations =  2.0

     negative rho (up, down):  9.711E-02 0.000E+00

     total cpu time spent up to now is       19.2 secs

     total energy              =      -1.83345601 Ry
     estimated scf accuracy    <       0.00000490 Ry

     iteration # 44     ecut=    15.00 Ry     beta= 0.70
     Davidson diagonalization with overlap

---- Real-time Memory Report at c_bands before calling an iterative solver
           203 MiB given to the printing process from OS
             0 MiB allocation reported by mallinfo(arena+hblkhd)
          1062 MiB available memory on the node where the printing process lives
------------------
     ethr =  4.86E-08,  avg # of iterations =  2.0

     negative rho (up, down):  9.711E-02 0.000E+00

     total cpu time spent up to now is       19.6 secs

     total energy              =      -1.83346020 Ry
     estimated scf accuracy    <       0.00000240 Ry

     iteration # 45     ecut=    15.00 Ry     beta= 0.70
     Davidson diagonalization with overlap

---- Real-time Memory Report at c_bands before calling an iterative solver
           203 MiB given to the printing process from OS
             0 MiB allocation reported by mallinfo(arena+hblkhd)
          1062 MiB available memory on the node where the printing process lives
------------------
     ethr =  4.86E-08,  avg # of iterations =  2.0

     negative rho (up, down):  9.711E-02 0.000E+00

     total cpu time spent up to now is       19.9 secs

     total energy              =      -1.83345555 Ry
     estimated scf accuracy    <       0.00000110 Ry

     iteration # 46     ecut=    15.00 Ry     beta= 0.70
     Davidson diagonalization with overlap

---- Real-time Memory Report at c_bands before calling an iterative solver
           203 MiB given to the printing process from OS
             0 MiB allocation reported by mallinfo(arena+hblkhd)
          1062 MiB available memory on the node where the printing process lives
------------------
     ethr =  4.86E-08,  avg # of iterations =  2.0

     negative rho (up, down):  9.711E-02 0.000E+00

     total cpu time spent up to now is       20.3 secs

     total energy              =      -1.83345449 Ry
     estimated scf accuracy    <       0.00000201 Ry

     iteration # 47     ecut=    15.00 Ry     beta= 0.70
     Davidson diagonalization with overlap

---- Real-time Memory Report at c_bands before calling an iterative solver
           203 MiB given to the printing process from OS
             0 MiB allocation reported by mallinfo(arena+hblkhd)
          1062 MiB available memory on the node where the printing process lives
------------------
     ethr =  4.86E-08,  avg # of iterations =  2.0

     negative rho (up, down):  9.711E-02 0.000E+00

     total cpu time spent up to now is       20.7 secs

     total energy              =      -1.83345695 Ry
     estimated scf accuracy    <       0.00000410 Ry

     iteration # 48     ecut=    15.00 Ry     beta= 0.70
     Davidson diagonalization with overlap

---- Real-time Memory Report at c_bands before calling an iterative solver
           203 MiB given to the printing process from OS
             0 MiB allocation reported by mallinfo(arena+hblkhd)
          1062 MiB available memory on the node where the printing process lives
------------------
     ethr =  4.86E-08,  avg # of iterations =  1.0

     negative rho (up, down):  9.711E-02 0.000E+00

     total cpu time spent up to now is       21.1 secs

     total energy              =      -1.83345902 Ry
     estimated scf accuracy    <       0.00000223 Ry

     iteration # 49     ecut=    15.00 Ry     beta= 0.70
     Davidson diagonalization with overlap

---- Real-time Memory Report at c_bands before calling an iterative solver
           203 MiB given to the printing process from OS
             0 MiB allocation reported by mallinfo(arena+hblkhd)
          1062 MiB available memory on the node where the printing process lives
------------------
     ethr =  4.86E-08,  avg # of iterations =  2.0

     negative rho (up, down):  9.711E-02 0.000E+00

     total cpu time spent up to now is       21.5 secs

     total energy              =      -1.83345627 Ry
     estimated scf accuracy    <       0.00001665 Ry

     iteration # 50     ecut=    15.00 Ry     beta= 0.70
     Davidson diagonalization with overlap

---- Real-time Memory Report at c_bands before calling an iterative solver
           203 MiB given to the printing process from OS
             0 MiB allocation reported by mallinfo(arena+hblkhd)
          1062 MiB available memory on the node where the printing process lives
------------------
     ethr =  4.86E-08,  avg # of iterations =  2.0

     negative rho (up, down):  9.711E-02 0.000E+00

     total cpu time spent up to now is       21.8 secs

     total energy              =      -1.83345886 Ry
     estimated scf accuracy    <       0.00004749 Ry

     iteration # 51     ecut=    15.00 Ry     beta= 0.70
     Davidson diagonalization with overlap

---- Real-time Memory Report at c_bands before calling an iterative solver
           203 MiB given to the printing process from OS
             0 MiB allocation reported by mallinfo(arena+hblkhd)
          1062 MiB available memory on the node where the printing process lives
------------------
     ethr =  4.86E-08,  avg # of iterations =  2.0

     negative rho (up, down):  9.711E-02 0.000E+00

     total cpu time spent up to now is       22.2 secs

     total energy              =      -1.83346120 Ry
     estimated scf accuracy    <       0.00000430 Ry

     iteration # 52     ecut=    15.00 Ry     beta= 0.70
     Davidson diagonalization with overlap

---- Real-time Memory Report at c_bands before calling an iterative solver
           203 MiB given to the printing process from OS
             0 MiB allocation reported by mallinfo(arena+hblkhd)
          1062 MiB available memory on the node where the printing process lives
------------------
     ethr =  4.86E-08,  avg # of iterations =  1.0

     negative rho (up, down):  9.711E-02 0.000E+00

     total cpu time spent up to now is       22.6 secs

     total energy              =      -1.83345153 Ry
     estimated scf accuracy    <       0.00000700 Ry

     iteration # 53     ecut=    15.00 Ry     beta= 0.70
     Davidson diagonalization with overlap

---- Real-time Memory Report at c_bands before calling an iterative solver
           203 MiB given to the printing process from OS
             0 MiB allocation reported by mallinfo(arena+hblkhd)
          1062 MiB available memory on the node where the printing process lives
------------------
     ethr =  4.86E-08,  avg # of iterations =  2.0

     negative rho (up, down):  9.711E-02 0.000E+00

     total cpu time spent up to now is       23.0 secs

     total energy              =      -1.83345867 Ry
     estimated scf accuracy    <       0.00004139 Ry

     iteration # 54     ecut=    15.00 Ry     beta= 0.70
     Davidson diagonalization with overlap

---- Real-time Memory Report at c_bands before calling an iterative solver
           203 MiB given to the printing process from OS
             0 MiB allocation reported by mallinfo(arena+hblkhd)
          1062 MiB available memory on the node where the printing process lives
------------------
     ethr =  4.86E-08,  avg # of iterations =  2.0

     negative rho (up, down):  9.712E-02 0.000E+00

     total cpu time spent up to now is       23.4 secs

     total energy              =      -1.83346189 Ry
     estimated scf accuracy    <       0.00000328 Ry

     iteration # 55     ecut=    15.00 Ry     beta= 0.70
     Davidson diagonalization with overlap

---- Real-time Memory Report at c_bands before calling an iterative solver
           203 MiB given to the printing process from OS
             0 MiB allocation reported by mallinfo(arena+hblkhd)
          1062 MiB available memory on the node where the printing process lives
------------------
     ethr =  4.86E-08,  avg # of iterations =  2.0

     negative rho (up, down):  9.712E-02 0.000E+00

     total cpu time spent up to now is       23.7 secs

     total energy              =      -1.83344985 Ry
     estimated scf accuracy    <       0.00000344 Ry

     iteration # 56     ecut=    15.00 Ry     beta= 0.70
     Davidson diagonalization with overlap

---- Real-time Memory Report at c_bands before calling an iterative solver
           203 MiB given to the printing process from OS
             0 MiB allocation reported by mallinfo(arena+hblkhd)
          1062 MiB available memory on the node where the printing process lives
------------------
     ethr =  4.86E-08,  avg # of iterations =  2.0

     negative rho (up, down):  9.711E-02 0.000E+00

     total cpu time spent up to now is       24.1 secs

     total energy              =      -1.83346145 Ry
     estimated scf accuracy    <       0.00001826 Ry

     iteration # 57     ecut=    15.00 Ry     beta= 0.70
     Davidson diagonalization with overlap

---- Real-time Memory Report at c_bands before calling an iterative solver
           203 MiB given to the printing process from OS
             0 MiB allocation reported by mallinfo(arena+hblkhd)
          1062 MiB available memory on the node where the printing process lives
------------------
     ethr =  4.86E-08,  avg # of iterations =  2.0

     negative rho (up, down):  9.711E-02 0.000E+00

     total cpu time spent up to now is       24.5 secs

     total energy              =      -1.83346223 Ry
     estimated scf accuracy    <       0.00000029 Ry

     iteration # 58     ecut=    15.00 Ry     beta= 0.70
     Davidson diagonalization with overlap

---- Real-time Memory Report at c_bands before calling an iterative solver
           203 MiB given to the printing process from OS
             0 MiB allocation reported by mallinfo(arena+hblkhd)
          1062 MiB available memory on the node where the printing process lives
------------------
     ethr =  1.47E-08,  avg # of iterations =  1.0

     negative rho (up, down):  9.711E-02 0.000E+00

     total cpu time spent up to now is       24.9 secs

     total energy              =      -1.83345767 Ry
     estimated scf accuracy    <       0.00000025 Ry

     iteration # 59     ecut=    15.00 Ry     beta= 0.70
     Davidson diagonalization with overlap

---- Real-time Memory Report at c_bands before calling an iterative solver
           203 MiB given to the printing process from OS
             0 MiB allocation reported by mallinfo(arena+hblkhd)
          1062 MiB available memory on the node where the printing process lives
------------------
     ethr =  1.23E-08,  avg # of iterations =  2.0

     negative rho (up, down):  9.711E-02 0.000E+00

     total cpu time spent up to now is       25.3 secs

     total energy              =      -1.83346136 Ry
     estimated scf accuracy    <       0.00000719 Ry

     iteration # 60     ecut=    15.00 Ry     beta= 0.70
     Davidson diagonalization with overlap

---- Real-time Memory Report at c_bands before calling an iterative solver
           203 MiB given to the printing process from OS
             0 MiB allocation reported by mallinfo(arena+hblkhd)
          1062 MiB available memory on the node where the printing process lives
------------------
     ethr =  1.23E-08,  avg # of iterations =  2.0

     negative rho (up, down):  9.711E-02 0.000E+00

     total cpu time spent up to now is       25.6 secs

     total energy              =      -1.83346210 Ry
     estimated scf accuracy    <       0.00000141 Ry

     iteration # 61     ecut=    15.00 Ry     beta= 0.70
     Davidson diagonalization with overlap

---- Real-time Memory Report at c_bands before calling an iterative solver
           203 MiB given to the printing process from OS
             0 MiB allocation reported by mallinfo(arena+hblkhd)
          1062 MiB available memory on the node where the printing process lives
------------------
     ethr =  1.23E-08,  avg # of iterations =  1.0

     negative rho (up, down):  9.711E-02 0.000E+00

     total cpu time spent up to now is       26.0 secs

     total energy              =      -1.83345755 Ry
     estimated scf accuracy    <       0.00000179 Ry

     iteration # 62     ecut=    15.00 Ry     beta= 0.70
     Davidson diagonalization with overlap

---- Real-time Memory Report at c_bands before calling an iterative solver
           203 MiB given to the printing process from OS
             0 MiB allocation reported by mallinfo(arena+hblkhd)
          1062 MiB available memory on the node where the printing process lives
------------------
     ethr =  1.23E-08,  avg # of iterations =  2.0

     negative rho (up, down):  9.711E-02 0.000E+00

     total cpu time spent up to now is       26.4 secs

     total energy              =      -1.83344968 Ry
     estimated scf accuracy    <       0.00000771 Ry

     iteration # 63     ecut=    15.00 Ry     beta= 0.70
     Davidson diagonalization with overlap

---- Real-time Memory Report at c_bands before calling an iterative solver
           203 MiB given to the printing process from OS
             0 MiB allocation reported by mallinfo(arena+hblkhd)
          1062 MiB available memory on the node where the printing process lives
------------------
     ethr =  1.23E-08,  avg # of iterations =  3.0

     negative rho (up, down):  9.711E-02 0.000E+00

     total cpu time spent up to now is       26.8 secs

     total energy              =      -1.83346330 Ry
     estimated scf accuracy    <       0.00000438 Ry

     iteration # 64     ecut=    15.00 Ry     beta= 0.70
     Davidson diagonalization with overlap

---- Real-time Memory Report at c_bands before calling an iterative solver
           203 MiB given to the printing process from OS
             0 MiB allocation reported by mallinfo(arena+hblkhd)
          1062 MiB available memory on the node where the printing process lives
------------------
     ethr =  1.23E-08,  avg # of iterations =  3.0

     negative rho (up, down):  9.711E-02 0.000E+00

     total cpu time spent up to now is       27.2 secs

     total energy              =      -1.83345924 Ry
     estimated scf accuracy    <       0.00000057 Ry

     iteration # 65     ecut=    15.00 Ry     beta= 0.70
     Davidson diagonalization with overlap

---- Real-time Memory Report at c_bands before calling an iterative solver
           203 MiB given to the printing process from OS
             0 MiB allocation reported by mallinfo(arena+hblkhd)
          1062 MiB available memory on the node where the printing process lives
------------------
     ethr =  1.23E-08,  avg # of iterations =  2.0

     negative rho (up, down):  9.712E-02 0.000E+00

     total cpu time spent up to now is       27.6 secs

     total energy              =      -1.83344914 Ry
     estimated scf accuracy    <       0.00000588 Ry

     iteration # 66     ecut=    15.00 Ry     beta= 0.70
     Davidson diagonalization with overlap

---- Real-time Memory Report at c_bands before calling an iterative solver
           203 MiB given to the printing process from OS
             0 MiB allocation reported by mallinfo(arena+hblkhd)
          1062 MiB available memory on the node where the printing process lives
------------------
     ethr =  1.23E-08,  avg # of iterations =  3.0

     negative rho (up, down):  9.712E-02 0.000E+00

     total cpu time spent up to now is       28.0 secs

     total energy              =      -1.83345418 Ry
     estimated scf accuracy    <       0.00000088 Ry

     iteration # 67     ecut=    15.00 Ry     beta= 0.70
     Davidson diagonalization with overlap

---- Real-time Memory Report at c_bands before calling an iterative solver
           203 MiB given to the printing process from OS
             0 MiB allocation reported by mallinfo(arena+hblkhd)
          1062 MiB available memory on the node where the printing process lives
------------------
     ethr =  1.23E-08,  avg # of iterations =  2.0

     negative rho (up, down):  9.712E-02 0.000E+00

     total cpu time spent up to now is       28.4 secs

     total energy              =      -1.83345234 Ry
     estimated scf accuracy    <       0.00000008 Ry

     iteration # 68     ecut=    15.00 Ry     beta= 0.70
     Davidson diagonalization with overlap

---- Real-time Memory Report at c_bands before calling an iterative solver
           203 MiB given to the printing process from OS
             0 MiB allocation reported by mallinfo(arena+hblkhd)
          1062 MiB available memory on the node where the printing process lives
------------------
     ethr =  3.84E-09,  avg # of iterations =  3.0

     negative rho (up, down):  9.712E-02 0.000E+00

     total cpu time spent up to now is       28.8 secs

     total energy              =      -1.83344585 Ry
     estimated scf accuracy    <       0.00000829 Ry

     iteration # 69     ecut=    15.00 Ry     beta= 0.70
     Davidson diagonalization with overlap

---- Real-time Memory Report at c_bands before calling an iterative solver
           203 MiB given to the printing process from OS
             0 MiB allocation reported by mallinfo(arena+hblkhd)
          1062 MiB available memory on the node where the printing process lives
------------------
     ethr =  3.84E-09,  avg # of iterations =  3.0

     negative rho (up, down):  9.712E-02 0.000E+00

     total cpu time spent up to now is       29.2 secs

     total energy              =      -1.83344904 Ry
     estimated scf accuracy    <       0.00000057 Ry

     iteration # 70     ecut=    15.00 Ry     beta= 0.70
     Davidson diagonalization with overlap

---- Real-time Memory Report at c_bands before calling an iterative solver
           203 MiB given to the printing process from OS
             0 MiB allocation reported by mallinfo(arena+hblkhd)
          1062 MiB available memory on the node where the printing process lives
------------------
     ethr =  3.84E-09,  avg # of iterations =  3.0

     negative rho (up, down):  9.712E-02 0.000E+00

     total cpu time spent up to now is       29.6 secs

     total energy              =      -1.83345090 Ry
     estimated scf accuracy    <       0.00001142 Ry

     iteration # 71     ecut=    15.00 Ry     beta= 0.70
     Davidson diagonalization with overlap

---- Real-time Memory Report at c_bands before calling an iterative solver
           203 MiB given to the printing process from OS
             0 MiB allocation reported by mallinfo(arena+hblkhd)
          1062 MiB available memory on the node where the printing process lives
------------------
     ethr =  3.84E-09,  avg # of iterations =  3.0

     negative rho (up, down):  9.712E-02 0.000E+00

     total cpu time spent up to now is       29.9 secs

     total energy              =      -1.83345459 Ry
     estimated scf accuracy    <       0.00000664 Ry

     iteration # 72     ecut=    15.00 Ry     beta= 0.70
     Davidson diagonalization with overlap

---- Real-time Memory Report at c_bands before calling an iterative solver
           203 MiB given to the printing process from OS
             0 MiB allocation reported by mallinfo(arena+hblkhd)
          1062 MiB available memory on the node where the printing process lives
------------------
     ethr =  3.84E-09,  avg # of iterations =  1.0

     negative rho (up, down):  9.711E-02 0.000E+00

     total cpu time spent up to now is       30.3 secs

     total energy              =      -1.83345175 Ry
     estimated scf accuracy    <       0.00000417 Ry

     iteration # 73     ecut=    15.00 Ry     beta= 0.70
     Davidson diagonalization with overlap

---- Real-time Memory Report at c_bands before calling an iterative solver
           204 MiB given to the printing process from OS
             0 MiB allocation reported by mallinfo(arena+hblkhd)
          1061 MiB available memory on the node where the printing process lives
------------------
     ethr =  3.84E-09,  avg # of iterations =  3.0

     negative rho (up, down):  9.711E-02 0.000E+00

     total cpu time spent up to now is       30.7 secs

     total energy              =      -1.83345399 Ry
     estimated scf accuracy    <       0.00000391 Ry

     iteration # 74     ecut=    15.00 Ry     beta= 0.70
     Davidson diagonalization with overlap

---- Real-time Memory Report at c_bands before calling an iterative solver
           204 MiB given to the printing process from OS
             0 MiB allocation reported by mallinfo(arena+hblkhd)
          1061 MiB available memory on the node where the printing process lives
------------------
     ethr =  3.84E-09,  avg # of iterations =  3.0

     negative rho (up, down):  9.711E-02 0.000E+00

     total cpu time spent up to now is       31.1 secs

     total energy              =      -1.83345228 Ry
     estimated scf accuracy    <       0.00000575 Ry

     iteration # 75     ecut=    15.00 Ry     beta= 0.70
     Davidson diagonalization with overlap

---- Real-time Memory Report at c_bands before calling an iterative solver
           204 MiB given to the printing process from OS
             0 MiB allocation reported by mallinfo(arena+hblkhd)
          1061 MiB available memory on the node where the printing process lives
------------------
     ethr =  3.84E-09,  avg # of iterations =  3.0

     negative rho (up, down):  9.711E-02 0.000E+00

     total cpu time spent up to now is       31.5 secs

     total energy              =      -1.83345675 Ry
     estimated scf accuracy    <       0.00000412 Ry

     iteration # 76     ecut=    15.00 Ry     beta= 0.70
     Davidson diagonalization with overlap

---- Real-time Memory Report at c_bands before calling an iterative solver
           204 MiB given to the printing process from OS
             0 MiB allocation reported by mallinfo(arena+hblkhd)
          1061 MiB available memory on the node where the printing process lives
------------------
     ethr =  3.84E-09,  avg # of iterations =  3.0

     negative rho (up, down):  9.711E-02 0.000E+00

     total cpu time spent up to now is       31.9 secs

     total energy              =      -1.83345453 Ry
     estimated scf accuracy    <       0.00001294 Ry

     iteration # 77     ecut=    15.00 Ry     beta= 0.70
     Davidson diagonalization with overlap

---- Real-time Memory Report at c_bands before calling an iterative solver
           204 MiB given to the printing process from OS
             0 MiB allocation reported by mallinfo(arena+hblkhd)
          1061 MiB available memory on the node where the printing process lives
------------------
     ethr =  3.84E-09,  avg # of iterations =  2.0

     negative rho (up, down):  9.711E-02 0.000E+00

     total cpu time spent up to now is       32.3 secs

     total energy              =      -1.83345433 Ry
     estimated scf accuracy    <       0.00000163 Ry

     iteration # 78     ecut=    15.00 Ry     beta= 0.70
     Davidson diagonalization with overlap

---- Real-time Memory Report at c_bands before calling an iterative solver
           204 MiB given to the printing process from OS
             0 MiB allocation reported by mallinfo(arena+hblkhd)
          1061 MiB available memory on the node where the printing process lives
------------------
     ethr =  3.84E-09,  avg # of iterations =  3.0

     negative rho (up, down):  9.711E-02 0.000E+00

     total cpu time spent up to now is       32.7 secs

     total energy              =      -1.83345017 Ry
     estimated scf accuracy    <       0.00000159 Ry

     iteration # 79     ecut=    15.00 Ry     beta= 0.70
     Davidson diagonalization with overlap

---- Real-time Memory Report at c_bands before calling an iterative solver
           204 MiB given to the printing process from OS
             0 MiB allocation reported by mallinfo(arena+hblkhd)
          1061 MiB available memory on the node where the printing process lives
------------------
     ethr =  3.84E-09,  avg # of iterations =  3.0

     negative rho (up, down):  9.711E-02 0.000E+00

     total cpu time spent up to now is       33.1 secs

     total energy              =      -1.83345404 Ry
     estimated scf accuracy    <       0.00000331 Ry

     iteration # 80     ecut=    15.00 Ry     beta= 0.70
     Davidson diagonalization with overlap

---- Real-time Memory Report at c_bands before calling an iterative solver
           204 MiB given to the printing process from OS
             0 MiB allocation reported by mallinfo(arena+hblkhd)
          1061 MiB available memory on the node where the printing process lives
------------------
     ethr =  3.84E-09,  avg # of iterations =  2.0

     negative rho (up, down):  9.711E-02 0.000E+00

     total cpu time spent up to now is       33.5 secs

     total energy              =      -1.83345050 Ry
     estimated scf accuracy    <       0.00000559 Ry

     iteration # 81     ecut=    15.00 Ry     beta= 0.70
     Davidson diagonalization with overlap

---- Real-time Memory Report at c_bands before calling an iterative solver
           204 MiB given to the printing process from OS
             0 MiB allocation reported by mallinfo(arena+hblkhd)
          1061 MiB available memory on the node where the printing process lives
------------------
     ethr =  3.84E-09,  avg # of iterations =  2.0

     negative rho (up, down):  9.711E-02 0.000E+00

     total cpu time spent up to now is       33.9 secs

     total energy              =      -1.83345411 Ry
     estimated scf accuracy    <       0.00000431 Ry

     iteration # 82     ecut=    15.00 Ry     beta= 0.70
     Davidson diagonalization with overlap

---- Real-time Memory Report at c_bands before calling an iterative solver
           204 MiB given to the printing process from OS
             0 MiB allocation reported by mallinfo(arena+hblkhd)
          1061 MiB available memory on the node where the printing process lives
------------------
     ethr =  3.84E-09,  avg # of iterations =  2.0

     negative rho (up, down):  9.711E-02 0.000E+00

     total cpu time spent up to now is       34.2 secs

     total energy              =      -1.83345523 Ry
     estimated scf accuracy    <       0.00000544 Ry

     iteration # 83     ecut=    15.00 Ry     beta= 0.70
     Davidson diagonalization with overlap

---- Real-time Memory Report at c_bands before calling an iterative solver
           204 MiB given to the printing process from OS
             0 MiB allocation reported by mallinfo(arena+hblkhd)
          1061 MiB available memory on the node where the printing process lives
------------------
     ethr =  3.84E-09,  avg # of iterations =  3.0

     negative rho (up, down):  9.711E-02 0.000E+00

     total cpu time spent up to now is       34.6 secs

     total energy              =      -1.83344874 Ry
     estimated scf accuracy    <       0.00000596 Ry

     iteration # 84     ecut=    15.00 Ry     beta= 0.70
     Davidson diagonalization with overlap

---- Real-time Memory Report at c_bands before calling an iterative solver
           204 MiB given to the printing process from OS
             0 MiB allocation reported by mallinfo(arena+hblkhd)
          1061 MiB available memory on the node where the printing process lives
------------------
     ethr =  3.84E-09,  avg # of iterations =  3.0

     negative rho (up, down):  9.711E-02 0.000E+00

     total cpu time spent up to now is       35.0 secs

     total energy              =      -1.83346095 Ry
     estimated scf accuracy    <       0.00000577 Ry

     iteration # 85     ecut=    15.00 Ry     beta= 0.70
     Davidson diagonalization with overlap

---- Real-time Memory Report at c_bands before calling an iterative solver
           204 MiB given to the printing process from OS
             0 MiB allocation reported by mallinfo(arena+hblkhd)
          1061 MiB available memory on the node where the printing process lives
------------------
     ethr =  3.84E-09,  avg # of iterations =  3.0

     negative rho (up, down):  9.711E-02 0.000E+00

     total cpu time spent up to now is       35.4 secs

     total energy              =      -1.83345664 Ry
     estimated scf accuracy    <       0.00000244 Ry

     iteration # 86     ecut=    15.00 Ry     beta= 0.70
     Davidson diagonalization with overlap

---- Real-time Memory Report at c_bands before calling an iterative solver
           204 MiB given to the printing process from OS
             0 MiB allocation reported by mallinfo(arena+hblkhd)
          1061 MiB available memory on the node where the printing process lives
------------------
     ethr =  3.84E-09,  avg # of iterations =  3.0

     negative rho (up, down):  9.711E-02 0.000E+00

     total cpu time spent up to now is       35.8 secs

     total energy              =      -1.83346111 Ry
     estimated scf accuracy    <       0.00000011 Ry

     iteration # 87     ecut=    15.00 Ry     beta= 0.70
     Davidson diagonalization with overlap

---- Real-time Memory Report at c_bands before calling an iterative solver
           204 MiB given to the printing process from OS
             0 MiB allocation reported by mallinfo(arena+hblkhd)
          1061 MiB available memory on the node where the printing process lives
------------------
     ethr =  3.84E-09,  avg # of iterations =  3.0

     negative rho (up, down):  9.711E-02 0.000E+00

     total cpu time spent up to now is       36.2 secs

     total energy              =      -1.83345069 Ry
     estimated scf accuracy    <       0.00000250 Ry

     iteration # 88     ecut=    15.00 Ry     beta= 0.70
     Davidson diagonalization with overlap

---- Real-time Memory Report at c_bands before calling an iterative solver
           204 MiB given to the printing process from OS
             0 MiB allocation reported by mallinfo(arena+hblkhd)
          1061 MiB available memory on the node where the printing process lives
------------------
     ethr =  3.84E-09,  avg # of iterations =  3.0

     negative rho (up, down):  9.711E-02 0.000E+00

     total cpu time spent up to now is       36.6 secs

     total energy              =      -1.83345925 Ry
     estimated scf accuracy    <       0.00000507 Ry

     iteration # 89     ecut=    15.00 Ry     beta= 0.70
     Davidson diagonalization with overlap

---- Real-time Memory Report at c_bands before calling an iterative solver
           204 MiB given to the printing process from OS
             0 MiB allocation reported by mallinfo(arena+hblkhd)
          1061 MiB available memory on the node where the printing process lives
------------------
     ethr =  3.84E-09,  avg # of iterations =  3.0

     negative rho (up, down):  9.711E-02 0.000E+00

     total cpu time spent up to now is       37.0 secs

     total energy              =      -1.83345306 Ry
     estimated scf accuracy    <       0.00000308 Ry

     iteration # 90     ecut=    15.00 Ry     beta= 0.70
     Davidson diagonalization with overlap

---- Real-time Memory Report at c_bands before calling an iterative solver
           204 MiB given to the printing process from OS
             0 MiB allocation reported by mallinfo(arena+hblkhd)
          1061 MiB available memory on the node where the printing process lives
------------------
     ethr =  3.84E-09,  avg # of iterations =  3.0

     negative rho (up, down):  9.711E-02 0.000E+00

     total cpu time spent up to now is       37.4 secs

     total energy              =      -1.83345322 Ry
     estimated scf accuracy    <       0.00000540 Ry

     iteration # 91     ecut=    15.00 Ry     beta= 0.70
     Davidson diagonalization with overlap

---- Real-time Memory Report at c_bands before calling an iterative solver
           204 MiB given to the printing process from OS
             0 MiB allocation reported by mallinfo(arena+hblkhd)
          1061 MiB available memory on the node where the printing process lives
------------------
     ethr =  3.84E-09,  avg # of iterations =  3.0

     negative rho (up, down):  9.711E-02 0.000E+00

     total cpu time spent up to now is       37.8 secs

     total energy              =      -1.83345445 Ry
     estimated scf accuracy    <       0.00000003 Ry

     iteration # 92     ecut=    15.00 Ry     beta= 0.70
     Davidson diagonalization with overlap

---- Real-time Memory Report at c_bands before calling an iterative solver
           204 MiB given to the printing process from OS
             0 MiB allocation reported by mallinfo(arena+hblkhd)
          1061 MiB available memory on the node where the printing process lives
------------------
     ethr =  1.72E-09,  avg # of iterations =  3.0

     negative rho (up, down):  9.711E-02 0.000E+00

     total cpu time spent up to now is       38.2 secs

     total energy              =      -1.83346201 Ry
     estimated scf accuracy    <       0.00000169 Ry

     iteration # 93     ecut=    15.00 Ry     beta= 0.70
     Davidson diagonalization with overlap

---- Real-time Memory Report at c_bands before calling an iterative solver
           204 MiB given to the printing process from OS
             0 MiB allocation reported by mallinfo(arena+hblkhd)
          1061 MiB available memory on the node where the printing process lives
------------------
     ethr =  1.72E-09,  avg # of iterations =  3.0

     negative rho (up, down):  9.711E-02 0.000E+00

     total cpu time spent up to now is       38.6 secs

     total energy              =      -1.83345672 Ry
     estimated scf accuracy    <       0.00000011 Ry

     iteration # 94     ecut=    15.00 Ry     beta= 0.70
     Davidson diagonalization with overlap

---- Real-time Memory Report at c_bands before calling an iterative solver
           204 MiB given to the printing process from OS
             0 MiB allocation reported by mallinfo(arena+hblkhd)
          1061 MiB available memory on the node where the printing process lives
------------------
     ethr =  1.72E-09,  avg # of iterations =  3.0

     negative rho (up, down):  9.711E-02 0.000E+00

     total cpu time spent up to now is       39.0 secs

     total energy              =      -1.83346203 Ry
     estimated scf accuracy    <       0.00001754 Ry

     iteration # 95     ecut=    15.00 Ry     beta= 0.70
     Davidson diagonalization with overlap

---- Real-time Memory Report at c_bands before calling an iterative solver
           204 MiB given to the printing process from OS
             0 MiB allocation reported by mallinfo(arena+hblkhd)
          1061 MiB available memory on the node where the printing process lives
------------------
     ethr =  1.72E-09,  avg # of iterations =  3.0

     negative rho (up, down):  9.711E-02 0.000E+00

     total cpu time spent up to now is       39.4 secs

     total energy              =      -1.83346251 Ry
     estimated scf accuracy    <       0.00000031 Ry

     iteration # 96     ecut=    15.00 Ry     beta= 0.70
     Davidson diagonalization with overlap

---- Real-time Memory Report at c_bands before calling an iterative solver
           204 MiB given to the printing process from OS
             0 MiB allocation reported by mallinfo(arena+hblkhd)
          1061 MiB available memory on the node where the printing process lives
------------------
     ethr =  1.72E-09,  avg # of iterations =  1.0

     negative rho (up, down):  9.711E-02 0.000E+00

     total cpu time spent up to now is       39.8 secs

     total energy              =      -1.83345623 Ry
     estimated scf accuracy    <       0.00000025 Ry

     iteration # 97     ecut=    15.00 Ry     beta= 0.70
     Davidson diagonalization with overlap

---- Real-time Memory Report at c_bands before calling an iterative solver
           204 MiB given to the printing process from OS
             0 MiB allocation reported by mallinfo(arena+hblkhd)
          1061 MiB available memory on the node where the printing process lives
------------------
     ethr =  1.72E-09,  avg # of iterations =  4.0

     negative rho (up, down):  9.711E-02 0.000E+00

     total cpu time spent up to now is       40.2 secs

     total energy              =      -1.83345559 Ry
     estimated scf accuracy    <       0.00000030 Ry

     iteration # 98     ecut=    15.00 Ry     beta= 0.70
     Davidson diagonalization with overlap

---- Real-time Memory Report at c_bands before calling an iterative solver
           204 MiB given to the printing process from OS
             0 MiB allocation reported by mallinfo(arena+hblkhd)
          1061 MiB available memory on the node where the printing process lives
------------------
     ethr =  1.72E-09,  avg # of iterations =  3.0

     negative rho (up, down):  9.711E-02 0.000E+00

     total cpu time spent up to now is       40.6 secs

     total energy              =      -1.83345276 Ry
     estimated scf accuracy    <       0.00000330 Ry

     iteration # 99     ecut=    15.00 Ry     beta= 0.70
     Davidson diagonalization with overlap

---- Real-time Memory Report at c_bands before calling an iterative solver
           204 MiB given to the printing process from OS
             0 MiB allocation reported by mallinfo(arena+hblkhd)
          1061 MiB available memory on the node where the printing process lives
------------------
     ethr =  1.72E-09,  avg # of iterations =  3.0

     negative rho (up, down):  9.711E-02 0.000E+00

     total cpu time spent up to now is       41.0 secs

     total energy              =      -1.83345706 Ry
     estimated scf accuracy    <       0.00000326 Ry

     iteration #100     ecut=    15.00 Ry     beta= 0.70
     Davidson diagonalization with overlap

---- Real-time Memory Report at c_bands before calling an iterative solver
           204 MiB given to the printing process from OS
             0 MiB allocation reported by mallinfo(arena+hblkhd)
          1061 MiB available memory on the node where the printing process lives
------------------
     ethr =  1.72E-09,  avg # of iterations =  3.0

     negative rho (up, down):  9.711E-02 0.000E+00

     total cpu time spent up to now is       41.4 secs

     total energy              =      -1.83345404 Ry
     estimated scf accuracy    <       0.00000062 Ry

     End of self-consistent calculation

     convergence NOT achieved after 100 iterations: stopping

     Writing config to output data dir ./.save/
     Message from routine punch:
     wavefunctions written to file

     init_run     :      0.37s CPU      0.40s WALL (       1 calls)
     electrons    :     40.93s CPU     41.00s WALL (       1 calls)

     Called by init_run:
     wfcinit      :      0.03s CPU      0.03s WALL (       1 calls)
     wfcinit:atom :      0.00s CPU      0.00s WALL (       1 calls)
     wfcinit:wfcr :      0.03s CPU      0.03s WALL (       1 calls)
     potinit      :      0.23s CPU      0.24s WALL (       1 calls)
     hinit0       :      0.02s CPU      0.02s WALL (       1 calls)

     Called by electrons:
     c_bands      :      7.11s CPU      7.12s WALL (     101 calls)
     sum_band     :      5.03s CPU      5.04s WALL (     101 calls)
     v_of_rho     :     21.69s CPU     21.71s WALL (     101 calls)
     v_h          :      1.25s CPU      1.25s WALL (     101 calls)
     v_xc         :     20.45s CPU     20.47s WALL (     101 calls)
     newd         :      1.59s CPU      1.60s WALL (     101 calls)
     mix_rho      :      5.30s CPU      5.33s WALL (     101 calls)

     Called by c_bands:
     init_us_2    :      0.15s CPU      0.15s WALL (     203 calls)
     init_us_2:cp :      0.15s CPU      0.15s WALL (     203 calls)
     cegterg      :      7.01s CPU      7.02s WALL (     101 calls)

     Called by sum_band:
     sum_band:wei :      0.00s CPU      0.00s WALL (     101 calls)
     sum_band:loo :      1.47s CPU      1.48s WALL (     101 calls)
     sum_band:buf :      0.00s CPU      0.00s WALL (     101 calls)
     sum_band:ini :      0.08s CPU      0.08s WALL (     101 calls)
     sum_band:cal :      0.02s CPU      0.02s WALL (     101 calls)
     sum_band:bec :      0.00s CPU      0.00s WALL (     101 calls)
     addusdens    :      0.46s CPU      0.46s WALL (     101 calls)
     addusd:skk   :      0.14s CPU      0.14s WALL (     101 calls)
     addusd:dgemm :      0.10s CPU      0.10s WALL (     101 calls)
     addusd:qvan2 :      0.12s CPU      0.12s WALL (     101 calls)

     Called by *egterg:
     cdiaghg      :      0.01s CPU      0.01s WALL (     292 calls)
     cegterg:over :      0.08s CPU      0.08s WALL (     192 calls)
     cegterg:upda :      0.06s CPU      0.06s WALL (     192 calls)
     cegterg:last :      0.09s CPU      0.09s WALL (     162 calls)
     h_psi        :      6.65s CPU      6.66s WALL (     294 calls)
     s_psi        :      0.04s CPU      0.04s WALL (     294 calls)
     g_psi        :      0.03s CPU      0.03s WALL (     192 calls)

     Called by h_psi:
     h_psi:calbec :      0.05s CPU      0.05s WALL (     294 calls)
     vloc_psi     :      6.53s CPU      6.54s WALL (     294 calls)
     add_vuspsi   :      0.04s CPU      0.04s WALL (     294 calls)

     General routines
     calbec       :      0.07s CPU      0.07s WALL (     395 calls)
     fft          :     10.87s CPU     10.87s WALL (    1112 calls)
     ffts         :      1.04s CPU      1.04s WALL (     101 calls)
     fftw         :      7.15s CPU      7.17s WALL (    1198 calls)
     davcio       :      0.01s CPU      0.01s WALL (      19 calls)


     PWSCF        :     41.33s CPU     41.46s WALL


   This run was terminated on:  22:23:42  28Feb2022            

=------------------------------------------------------------------------------=
   JOB DONE.
=------------------------------------------------------------------------------=
