
     Program PWSCF v.7.0 starts on 28Feb2022 at 14: 1: 0 

     This program is part of the open-source Quantum ESPRESSO suite
     for quantum simulation of materials; please cite
         "P. Giannozzi et al., J. Phys.:Condens. Matter 21 395502 (2009);
         "P. Giannozzi et al., J. Phys.:Condens. Matter 29 465901 (2017);
         "P. Giannozzi et al., J. Chem. Phys. 152 154105 (2020);
          URL http://www.quantum-espresso.org", 
     in publications or presentations arising from this work. More details at
     http://www.quantum-espresso.org/quote

     Serial version
     695 MiB available memory on the printing compute node when the environment starts

     Waiting for input...
     Reading input from standard input

     Current dimensions of program PWSCF are:
     Max number of different atomic species (ntypx) = 10
     Max number of k-points (npk) =  40000
     Max angular momentum in pseudopotentials (lmaxx) =  4

    ============================================================
    |  pseudopotential report for atomic species:  1           |
    |        pseudo potential version   7   3   2              |
    ------------------------------------------------------------
    |  hydrogen            PBE                  exchange-corr  |
    |  z =   1.    zv( 1) =   1.    exfact =   5.00000         |
    |  ifpcor =  0           atomic energy =  -0.91772 Ry      |
    |  index    orbital      occupation    energy              |
    |    1        100           1.00       -0.48               |
    |  rinner =  0.5000                                        |
    |    new generation scheme:                                |
    |    nbeta =  1     kkbeta =  271     rcloc =    0.6000    |
    |    ibeta    l     epsilon   rcut                         |
    |      1       0      -0.48   0.80                         |
    ============================================================

     IMPORTANT: XC functional enforced from input :
     Exchange-correlation= BLYP
                           (   1   3   1   3   0   0   0)
     Any further DFT definition will be discarded
     Please, verify this is what you really want


     G-vector sticks info
     --------------------
     sticks:   dense  smooth     PW     G-vecs:    dense   smooth      PW
     Sum        1433    1433    421                40651    40651    6451

     Using Slab Decomposition



     bravais-lattice index     =            1
     lattice parameter (alat)  =      30.0000  a.u.
     unit-cell volume          =   27000.0000 (a.u.)^3
     number of atoms/cell      =            2
     number of atomic types    =            1
     number of electrons       =         2.00
     number of Kohn-Sham states=            2
     kinetic-energy cutoff     =       5.0000  Ry
     charge density cutoff     =      20.0000  Ry
     scf convergence threshold =      1.0E-08
     mixing beta               =       0.7000
     number of iterations used =            8  plain     mixing
     Exchange-correlation= BLYP
                           (   1   3   1   3   0   0   0)

     celldm(1)=  30.000000  celldm(2)=   0.000000  celldm(3)=   0.000000
     celldm(4)=   0.000000  celldm(5)=   0.000000  celldm(6)=   0.000000

     crystal axes: (cart. coord. in units of alat)
               a(1) = (   1.000000   0.000000   0.000000 )  
               a(2) = (   0.000000   1.000000   0.000000 )  
               a(3) = (   0.000000   0.000000   1.000000 )  

     reciprocal axes: (cart. coord. in units 2 pi/alat)
               b(1) = (  1.000000  0.000000  0.000000 )  
               b(2) = (  0.000000  1.000000  0.000000 )  
               b(3) = (  0.000000  0.000000  1.000000 )  


     PseudoPot. # 1 for hy read from file:
     /root/q-e/pseudo/H_US.van
     MD5 check sum: a9a9bfe98ff56cf4de197d71fc46bb44
     Pseudo is Ultrasoft, Zval =  1.0
     Generated by Vanderbilt code, v. 7.3.2
     Using radial grid of  399 points,  1 beta functions with: 
                l(1) =   0
     Q(r) pseudized with  8 coefficients,  rinner =    0.500

     atomic species   valence    mass     pseudopotential
        H              1.00     1.00784     hy( 1.00)

      8 Sym. Ops. (no inversion) found


                                    s                        frac. trans.

      isym =  1     identity                                     

 cryst.   s( 1) = (     1          0          0      )
                  (     0          1          0      )
                  (     0          0          1      )

 cart.    s( 1) = (  1.0000000  0.0000000  0.0000000 )
                  (  0.0000000  1.0000000  0.0000000 )
                  (  0.0000000  0.0000000  1.0000000 )


      isym =  2     180 deg rotation - cart. axis [1,0,0]        

 cryst.   s( 2) = (     1          0          0      )
                  (     0         -1          0      )
                  (     0          0         -1      )

 cart.    s( 2) = (  1.0000000  0.0000000  0.0000000 )
                  (  0.0000000 -1.0000000  0.0000000 )
                  (  0.0000000  0.0000000 -1.0000000 )


      isym =  3      90 deg rotation - cart. axis [-1,0,0]       

 cryst.   s( 3) = (     1          0          0      )
                  (     0          0         -1      )
                  (     0          1          0      )

 cart.    s( 3) = (  1.0000000  0.0000000  0.0000000 )
                  (  0.0000000  0.0000000  1.0000000 )
                  (  0.0000000 -1.0000000  0.0000000 )


      isym =  4      90 deg rotation - cart. axis [1,0,0]        

 cryst.   s( 4) = (     1          0          0      )
                  (     0          0          1      )
                  (     0         -1          0      )

 cart.    s( 4) = (  1.0000000  0.0000000  0.0000000 )
                  (  0.0000000  0.0000000 -1.0000000 )
                  (  0.0000000  1.0000000  0.0000000 )


      isym =  5     inv. 180 deg rotation - cart. axis [0,0,1]   

 cryst.   s( 5) = (     1          0          0      )
                  (     0          1          0      )
                  (     0          0         -1      )

 cart.    s( 5) = (  1.0000000  0.0000000  0.0000000 )
                  (  0.0000000  1.0000000  0.0000000 )
                  (  0.0000000  0.0000000 -1.0000000 )


      isym =  6     inv. 180 deg rotation - cart. axis [0,1,0]   

 cryst.   s( 6) = (     1          0          0      )
                  (     0         -1          0      )
                  (     0          0          1      )

 cart.    s( 6) = (  1.0000000  0.0000000  0.0000000 )
                  (  0.0000000 -1.0000000  0.0000000 )
                  (  0.0000000  0.0000000  1.0000000 )


      isym =  7     inv. 180 deg rotation - cart. axis [0,1,1]   

 cryst.   s( 7) = (     1          0          0      )
                  (     0          0         -1      )
                  (     0         -1          0      )

 cart.    s( 7) = (  1.0000000  0.0000000  0.0000000 )
                  (  0.0000000  0.0000000 -1.0000000 )
                  (  0.0000000 -1.0000000  0.0000000 )


      isym =  8     inv. 180 deg rotation - cart. axis [0,1,-1]  

 cryst.   s( 8) = (     1          0          0      )
                  (     0          0          1      )
                  (     0          1          0      )

 cart.    s( 8) = (  1.0000000  0.0000000  0.0000000 )
                  (  0.0000000  0.0000000  1.0000000 )
                  (  0.0000000  1.0000000  0.0000000 )


     point group C_4v (4mm) 
     there are  5 classes
     the character table:

       E     2C4   C2    2s_v  2s_d 
A_1    1.00  1.00  1.00  1.00  1.00
A_2    1.00  1.00  1.00 -1.00 -1.00
B_1    1.00 -1.00  1.00  1.00 -1.00
B_2    1.00 -1.00  1.00 -1.00  1.00
E      2.00  0.00 -2.00  0.00  0.00

     the symmetry operations in each class and the name of the first element:

     E        1
          identity                                               
     2C4      3    4
           90 deg rotation - cart. axis [-1,0,0]                 
     C2       2
          180 deg rotation - cart. axis [1,0,0]                  
     2s_v     5    6
          inv. 180 deg rotation - cart. axis [0,0,1]             
     2s_d     7    8
          inv. 180 deg rotation - cart. axis [0,1,1]             

   Cartesian axes

     site n.     atom                  positions (alat units)
         1           H   tau(   1) = (   0.0000000   0.0000000   0.0000000  )
         2           H   tau(   2) = (   0.0491329   0.0000000   0.0000000  )

   Crystallographic axes

     site n.     atom                  positions (cryst. coord.)
         1           H   tau(   1) = (  0.0000000  0.0000000  0.0000000  )
         2           H   tau(   2) = (  0.0491329  0.0000000  0.0000000  )

     number of k points=     1
                       cart. coord. in units 2pi/alat
        k(    1) = (  -0.5000000  -0.5000000  -0.5000000), wk =   2.0000000

                       cryst. coord.
        k(    1) = (  -0.5000000  -0.5000000  -0.5000000), wk =   2.0000000

     Dense  grid:    40651 G-vectors     FFT dimensions: (  45,  45,  45)

     Dynamical RAM for                 wfc:       0.16 MB

     Dynamical RAM for     wfc (w. buffer):       0.16 MB

     Dynamical RAM for           str. fact:       0.62 MB

     Dynamical RAM for           local pot:       0.00 MB

     Dynamical RAM for          nlocal pot:       0.16 MB

     Dynamical RAM for                qrad:       0.00 MB

     Dynamical RAM for          rho,v,vnew:       3.95 MB

     Dynamical RAM for               rhoin:       1.32 MB

     Dynamical RAM for            rho*nmix:       9.92 MB

     Dynamical RAM for           G-vectors:       2.64 MB

     Dynamical RAM for          h,s,v(r/c):       0.00 MB

     Dynamical RAM for          <psi|beta>:       0.00 MB

     Dynamical RAM for                 psi:       0.31 MB

     Dynamical RAM for                hpsi:       0.31 MB

     Dynamical RAM for                spsi:       0.31 MB

     Dynamical RAM for      wfcinit/wfcrot:       0.31 MB

     Dynamical RAM for           addusdens:       3.72 MB

     Estimated static dynamical RAM per process >      13.55 MB

     Estimated max dynamical RAM per process >      27.20 MB

     Initial potential from superposition of free atoms

     starting charge       2.0000, renormalised to       2.0000

     negative rho (up, down):  5.326E-01 0.000E+00
     Starting wfcs are    2 randomized atomic wfcs

     total cpu time spent up to now is        0.1 secs

     Self-consistent Calculation

     iteration #  1     ecut=     5.00 Ry     beta= 0.70
     Davidson diagonalization with overlap

---- Real-time Memory Report at c_bands before calling an iterative solver
            38 MiB given to the printing process from OS
             0 MiB allocation reported by mallinfo(arena+hblkhd)
           677 MiB available memory on the node where the printing process lives
------------------
     ethr =  1.00E-02,  avg # of iterations =  5.0

     negative rho (up, down):  4.341E-01 0.000E+00

     total cpu time spent up to now is        0.2 secs

     total energy              =      -2.03840994 Ry
     estimated scf accuracy    <       0.03607243 Ry

     iteration #  2     ecut=     5.00 Ry     beta= 0.70
     Davidson diagonalization with overlap

---- Real-time Memory Report at c_bands before calling an iterative solver
            45 MiB given to the printing process from OS
             0 MiB allocation reported by mallinfo(arena+hblkhd)
           664 MiB available memory on the node where the printing process lives
------------------
     ethr =  1.80E-03,  avg # of iterations =  2.0

     negative rho (up, down):  3.909E-01 0.000E+00

     total cpu time spent up to now is        0.2 secs

     total energy              =      -2.05533041 Ry
     estimated scf accuracy    <       0.00185300 Ry

     iteration #  3     ecut=     5.00 Ry     beta= 0.70
     Davidson diagonalization with overlap

---- Real-time Memory Report at c_bands before calling an iterative solver
            46 MiB given to the printing process from OS
             0 MiB allocation reported by mallinfo(arena+hblkhd)
           663 MiB available memory on the node where the printing process lives
------------------
     ethr =  9.27E-05,  avg # of iterations =  9.0

     negative rho (up, down):  3.819E-01 0.000E+00

     total cpu time spent up to now is        0.3 secs

     total energy              =      -2.05924935 Ry
     estimated scf accuracy    <       0.00002350 Ry

     iteration #  4     ecut=     5.00 Ry     beta= 0.70
     Davidson diagonalization with overlap

---- Real-time Memory Report at c_bands before calling an iterative solver
            47 MiB given to the printing process from OS
             0 MiB allocation reported by mallinfo(arena+hblkhd)
           662 MiB available memory on the node where the printing process lives
------------------
     ethr =  1.18E-06,  avg # of iterations =  7.0

     negative rho (up, down):  3.819E-01 0.000E+00

     total cpu time spent up to now is        0.4 secs

     total energy              =      -2.05925618 Ry
     estimated scf accuracy    <       0.00017570 Ry

     iteration #  5     ecut=     5.00 Ry     beta= 0.70
     Davidson diagonalization with overlap

---- Real-time Memory Report at c_bands before calling an iterative solver
            48 MiB given to the printing process from OS
             0 MiB allocation reported by mallinfo(arena+hblkhd)
           660 MiB available memory on the node where the printing process lives
------------------
     ethr =  1.18E-06,  avg # of iterations =  6.0

     negative rho (up, down):  3.837E-01 0.000E+00

     total cpu time spent up to now is        0.5 secs

     total energy              =      -2.05885411 Ry
     estimated scf accuracy    <       0.00005282 Ry

     iteration #  6     ecut=     5.00 Ry     beta= 0.70
     Davidson diagonalization with overlap

---- Real-time Memory Report at c_bands before calling an iterative solver
            50 MiB given to the printing process from OS
             0 MiB allocation reported by mallinfo(arena+hblkhd)
           659 MiB available memory on the node where the printing process lives
------------------
     ethr =  1.18E-06,  avg # of iterations =  8.0

     negative rho (up, down):  3.827E-01 0.000E+00

     total cpu time spent up to now is        0.6 secs

     total energy              =      -2.05971584 Ry
     estimated scf accuracy    <       0.00012975 Ry

     iteration #  7     ecut=     5.00 Ry     beta= 0.70
     Davidson diagonalization with overlap

---- Real-time Memory Report at c_bands before calling an iterative solver
            51 MiB given to the printing process from OS
             0 MiB allocation reported by mallinfo(arena+hblkhd)
           658 MiB available memory on the node where the printing process lives
------------------
     ethr =  1.18E-06,  avg # of iterations =  2.0

     negative rho (up, down):  3.824E-01 0.000E+00

     total cpu time spent up to now is        0.7 secs

     total energy              =      -2.05943532 Ry
     estimated scf accuracy    <       0.00010337 Ry

     iteration #  8     ecut=     5.00 Ry     beta= 0.70
     Davidson diagonalization with overlap

---- Real-time Memory Report at c_bands before calling an iterative solver
            52 MiB given to the printing process from OS
             0 MiB allocation reported by mallinfo(arena+hblkhd)
           657 MiB available memory on the node where the printing process lives
------------------
     ethr =  1.18E-06,  avg # of iterations =  2.0

     negative rho (up, down):  3.824E-01 0.000E+00

     total cpu time spent up to now is        0.7 secs

     total energy              =      -2.05944410 Ry
     estimated scf accuracy    <       0.00005418 Ry

     iteration #  9     ecut=     5.00 Ry     beta= 0.70
     Davidson diagonalization with overlap

---- Real-time Memory Report at c_bands before calling an iterative solver
            53 MiB given to the printing process from OS
             0 MiB allocation reported by mallinfo(arena+hblkhd)
           656 MiB available memory on the node where the printing process lives
------------------
     ethr =  1.18E-06,  avg # of iterations =  2.0

     negative rho (up, down):  3.826E-01 0.000E+00

     total cpu time spent up to now is        0.8 secs

     total energy              =      -2.05919432 Ry
     estimated scf accuracy    <       0.00004783 Ry

     iteration # 10     ecut=     5.00 Ry     beta= 0.70
     Davidson diagonalization with overlap

---- Real-time Memory Report at c_bands before calling an iterative solver
            55 MiB given to the printing process from OS
             0 MiB allocation reported by mallinfo(arena+hblkhd)
           654 MiB available memory on the node where the printing process lives
------------------
     ethr =  1.18E-06,  avg # of iterations =  2.0

     negative rho (up, down):  3.831E-01 0.000E+00

     total cpu time spent up to now is        0.9 secs

     total energy              =      -2.05928381 Ry
     estimated scf accuracy    <       0.00005195 Ry

     iteration # 11     ecut=     5.00 Ry     beta= 0.70
     Davidson diagonalization with overlap

---- Real-time Memory Report at c_bands before calling an iterative solver
            55 MiB given to the printing process from OS
             0 MiB allocation reported by mallinfo(arena+hblkhd)
           654 MiB available memory on the node where the printing process lives
------------------
     ethr =  1.18E-06,  avg # of iterations =  2.0

     negative rho (up, down):  3.829E-01 0.000E+00

     total cpu time spent up to now is        0.9 secs

     total energy              =      -2.05940454 Ry
     estimated scf accuracy    <       0.00009747 Ry

     iteration # 12     ecut=     5.00 Ry     beta= 0.70
     Davidson diagonalization with overlap

---- Real-time Memory Report at c_bands before calling an iterative solver
            55 MiB given to the printing process from OS
             0 MiB allocation reported by mallinfo(arena+hblkhd)
           654 MiB available memory on the node where the printing process lives
------------------
     ethr =  1.18E-06,  avg # of iterations =  2.0

     negative rho (up, down):  3.829E-01 0.000E+00

     total cpu time spent up to now is        1.0 secs

     total energy              =      -2.05935462 Ry
     estimated scf accuracy    <       0.00010510 Ry

     iteration # 13     ecut=     5.00 Ry     beta= 0.70
     Davidson diagonalization with overlap

---- Real-time Memory Report at c_bands before calling an iterative solver
            55 MiB given to the printing process from OS
             0 MiB allocation reported by mallinfo(arena+hblkhd)
           654 MiB available memory on the node where the printing process lives
------------------
     ethr =  1.18E-06,  avg # of iterations =  2.0

     negative rho (up, down):  3.817E-01 0.000E+00

     total cpu time spent up to now is        1.1 secs

     total energy              =      -2.05894277 Ry
     estimated scf accuracy    <       0.00008971 Ry

     iteration # 14     ecut=     5.00 Ry     beta= 0.70
     Davidson diagonalization with overlap

---- Real-time Memory Report at c_bands before calling an iterative solver
            55 MiB given to the printing process from OS
             0 MiB allocation reported by mallinfo(arena+hblkhd)
           654 MiB available memory on the node where the printing process lives
------------------
     ethr =  1.18E-06,  avg # of iterations =  8.0

     negative rho (up, down):  3.816E-01 0.000E+00

     total cpu time spent up to now is        1.2 secs

     total energy              =      -2.05908848 Ry
     estimated scf accuracy    <       0.00000779 Ry

     iteration # 15     ecut=     5.00 Ry     beta= 0.70
     Davidson diagonalization with overlap

---- Real-time Memory Report at c_bands before calling an iterative solver
            55 MiB given to the printing process from OS
             0 MiB allocation reported by mallinfo(arena+hblkhd)
           654 MiB available memory on the node where the printing process lives
------------------
     ethr =  3.90E-07,  avg # of iterations =  3.0

     negative rho (up, down):  3.811E-01 0.000E+00

     total cpu time spent up to now is        1.3 secs

     total energy              =      -2.05943427 Ry
     estimated scf accuracy    <       0.00000764 Ry

     iteration # 16     ecut=     5.00 Ry     beta= 0.70
     Davidson diagonalization with overlap

---- Real-time Memory Report at c_bands before calling an iterative solver
            55 MiB given to the printing process from OS
             0 MiB allocation reported by mallinfo(arena+hblkhd)
           654 MiB available memory on the node where the printing process lives
------------------
     ethr =  3.82E-07,  avg # of iterations =  3.0

     negative rho (up, down):  3.809E-01 0.000E+00

     total cpu time spent up to now is        1.3 secs

     total energy              =      -2.05952437 Ry
     estimated scf accuracy    <       0.00000169 Ry

     iteration # 17     ecut=     5.00 Ry     beta= 0.70
     Davidson diagonalization with overlap

---- Real-time Memory Report at c_bands before calling an iterative solver
            55 MiB given to the printing process from OS
             0 MiB allocation reported by mallinfo(arena+hblkhd)
           654 MiB available memory on the node where the printing process lives
------------------
     ethr =  8.44E-08,  avg # of iterations =  3.0

     negative rho (up, down):  3.808E-01 0.000E+00

     total cpu time spent up to now is        1.4 secs

     total energy              =      -2.05992121 Ry
     estimated scf accuracy    <       0.00000102 Ry

     iteration # 18     ecut=     5.00 Ry     beta= 0.70
     Davidson diagonalization with overlap

---- Real-time Memory Report at c_bands before calling an iterative solver
            55 MiB given to the printing process from OS
             0 MiB allocation reported by mallinfo(arena+hblkhd)
           654 MiB available memory on the node where the printing process lives
------------------
     ethr =  5.12E-08,  avg # of iterations =  4.0

     negative rho (up, down):  3.813E-01 0.000E+00

     total cpu time spent up to now is        1.5 secs

     total energy              =      -2.05905367 Ry
     estimated scf accuracy    <       0.00000846 Ry

     iteration # 19     ecut=     5.00 Ry     beta= 0.70
     Davidson diagonalization with overlap

---- Real-time Memory Report at c_bands before calling an iterative solver
            55 MiB given to the printing process from OS
             0 MiB allocation reported by mallinfo(arena+hblkhd)
           654 MiB available memory on the node where the printing process lives
------------------
     ethr =  5.12E-08,  avg # of iterations =  5.0

     negative rho (up, down):  3.814E-01 0.000E+00

     total cpu time spent up to now is        1.6 secs

     total energy              =      -2.05977117 Ry
     estimated scf accuracy    <       0.00006388 Ry

     iteration # 20     ecut=     5.00 Ry     beta= 0.70
     Davidson diagonalization with overlap

---- Real-time Memory Report at c_bands before calling an iterative solver
            55 MiB given to the printing process from OS
             0 MiB allocation reported by mallinfo(arena+hblkhd)
           654 MiB available memory on the node where the printing process lives
------------------
     ethr =  5.12E-08,  avg # of iterations =  3.0

     negative rho (up, down):  3.815E-01 0.000E+00

     total cpu time spent up to now is        1.6 secs

     total energy              =      -2.05886785 Ry
     estimated scf accuracy    <       0.00008540 Ry

     iteration # 21     ecut=     5.00 Ry     beta= 0.70
     Davidson diagonalization with overlap

---- Real-time Memory Report at c_bands before calling an iterative solver
            55 MiB given to the printing process from OS
             0 MiB allocation reported by mallinfo(arena+hblkhd)
           654 MiB available memory on the node where the printing process lives
------------------
     ethr =  5.12E-08,  avg # of iterations =  5.0

     negative rho (up, down):  3.823E-01 0.000E+00

     total cpu time spent up to now is        1.7 secs

     total energy              =      -2.05913047 Ry
     estimated scf accuracy    <       0.00000764 Ry

     iteration # 22     ecut=     5.00 Ry     beta= 0.70
     Davidson diagonalization with overlap

---- Real-time Memory Report at c_bands before calling an iterative solver
            55 MiB given to the printing process from OS
             0 MiB allocation reported by mallinfo(arena+hblkhd)
           654 MiB available memory on the node where the printing process lives
------------------
     ethr =  5.12E-08,  avg # of iterations =  3.0

     negative rho (up, down):  3.819E-01 0.000E+00

     total cpu time spent up to now is        1.8 secs

     total energy              =      -2.05906040 Ry
     estimated scf accuracy    <       0.00002114 Ry

     iteration # 23     ecut=     5.00 Ry     beta= 0.70
     Davidson diagonalization with overlap

---- Real-time Memory Report at c_bands before calling an iterative solver
            55 MiB given to the printing process from OS
             0 MiB allocation reported by mallinfo(arena+hblkhd)
           654 MiB available memory on the node where the printing process lives
------------------
     ethr =  5.12E-08,  avg # of iterations =  3.0

     negative rho (up, down):  3.822E-01 0.000E+00

     total cpu time spent up to now is        1.9 secs

     total energy              =      -2.05907924 Ry
     estimated scf accuracy    <       0.00000725 Ry

     iteration # 24     ecut=     5.00 Ry     beta= 0.70
     Davidson diagonalization with overlap

---- Real-time Memory Report at c_bands before calling an iterative solver
            55 MiB given to the printing process from OS
             0 MiB allocation reported by mallinfo(arena+hblkhd)
           654 MiB available memory on the node where the printing process lives
------------------
     ethr =  5.12E-08,  avg # of iterations =  3.0

     negative rho (up, down):  3.812E-01 0.000E+00

     total cpu time spent up to now is        1.9 secs

     total energy              =      -2.05939764 Ry
     estimated scf accuracy    <       0.00001755 Ry

     iteration # 25     ecut=     5.00 Ry     beta= 0.70
     Davidson diagonalization with overlap

---- Real-time Memory Report at c_bands before calling an iterative solver
            55 MiB given to the printing process from OS
             0 MiB allocation reported by mallinfo(arena+hblkhd)
           654 MiB available memory on the node where the printing process lives
------------------
     ethr =  5.12E-08,  avg # of iterations =  3.0

     negative rho (up, down):  3.805E-01 0.000E+00

     total cpu time spent up to now is        2.0 secs

     total energy              =      -2.05956292 Ry
     estimated scf accuracy    <       0.00000990 Ry

     iteration # 26     ecut=     5.00 Ry     beta= 0.70
     Davidson diagonalization with overlap

---- Real-time Memory Report at c_bands before calling an iterative solver
            55 MiB given to the printing process from OS
             0 MiB allocation reported by mallinfo(arena+hblkhd)
           654 MiB available memory on the node where the printing process lives
------------------
     ethr =  5.12E-08,  avg # of iterations =  4.0

     negative rho (up, down):  3.803E-01 0.000E+00

     total cpu time spent up to now is        2.1 secs

     total energy              =      -2.05974332 Ry
     estimated scf accuracy    <       0.00000352 Ry

     iteration # 27     ecut=     5.00 Ry     beta= 0.70
     Davidson diagonalization with overlap

---- Real-time Memory Report at c_bands before calling an iterative solver
            55 MiB given to the printing process from OS
             0 MiB allocation reported by mallinfo(arena+hblkhd)
           654 MiB available memory on the node where the printing process lives
------------------
     ethr =  5.12E-08,  avg # of iterations =  3.0

     negative rho (up, down):  3.800E-01 0.000E+00

     total cpu time spent up to now is        2.2 secs

     total energy              =      -2.05983373 Ry
     estimated scf accuracy    <       0.00000281 Ry

     iteration # 28     ecut=     5.00 Ry     beta= 0.70
     Davidson diagonalization with overlap

---- Real-time Memory Report at c_bands before calling an iterative solver
            55 MiB given to the printing process from OS
             0 MiB allocation reported by mallinfo(arena+hblkhd)
           654 MiB available memory on the node where the printing process lives
------------------
     ethr =  5.12E-08,  avg # of iterations =  4.0

     negative rho (up, down):  3.815E-01 0.000E+00

     total cpu time spent up to now is        2.2 secs

     total energy              =      -2.05900094 Ry
     estimated scf accuracy    <       0.00000640 Ry

     iteration # 29     ecut=     5.00 Ry     beta= 0.70
     Davidson diagonalization with overlap

---- Real-time Memory Report at c_bands before calling an iterative solver
            55 MiB given to the printing process from OS
             0 MiB allocation reported by mallinfo(arena+hblkhd)
           654 MiB available memory on the node where the printing process lives
------------------
     ethr =  5.12E-08,  avg # of iterations =  4.0

     negative rho (up, down):  3.808E-01 0.000E+00

     total cpu time spent up to now is        2.3 secs

     total energy              =      -2.05957165 Ry
     estimated scf accuracy    <       0.00000302 Ry

     iteration # 30     ecut=     5.00 Ry     beta= 0.70
     Davidson diagonalization with overlap

---- Real-time Memory Report at c_bands before calling an iterative solver
            55 MiB given to the printing process from OS
             0 MiB allocation reported by mallinfo(arena+hblkhd)
           654 MiB available memory on the node where the printing process lives
------------------
     ethr =  5.12E-08,  avg # of iterations =  4.0

     negative rho (up, down):  3.808E-01 0.000E+00

     total cpu time spent up to now is        2.4 secs

     total energy              =      -2.05965750 Ry
     estimated scf accuracy    <       0.00000264 Ry

     iteration # 31     ecut=     5.00 Ry     beta= 0.70
     Davidson diagonalization with overlap

---- Real-time Memory Report at c_bands before calling an iterative solver
            55 MiB given to the printing process from OS
             0 MiB allocation reported by mallinfo(arena+hblkhd)
           654 MiB available memory on the node where the printing process lives
------------------
     ethr =  5.12E-08,  avg # of iterations =  2.0

     negative rho (up, down):  3.818E-01 0.000E+00

     total cpu time spent up to now is        2.5 secs

     total energy              =      -2.05906454 Ry
     estimated scf accuracy    <       0.00000263 Ry

     iteration # 32     ecut=     5.00 Ry     beta= 0.70
     Davidson diagonalization with overlap

---- Real-time Memory Report at c_bands before calling an iterative solver
            55 MiB given to the printing process from OS
             0 MiB allocation reported by mallinfo(arena+hblkhd)
           654 MiB available memory on the node where the printing process lives
------------------
     ethr =  5.12E-08,  avg # of iterations =  4.0

     negative rho (up, down):  3.814E-01 0.000E+00

     total cpu time spent up to now is        2.6 secs

     total energy              =      -2.05919497 Ry
     estimated scf accuracy    <       0.00000260 Ry

     iteration # 33     ecut=     5.00 Ry     beta= 0.70
     Davidson diagonalization with overlap

---- Real-time Memory Report at c_bands before calling an iterative solver
            55 MiB given to the printing process from OS
             0 MiB allocation reported by mallinfo(arena+hblkhd)
           654 MiB available memory on the node where the printing process lives
------------------
     ethr =  5.12E-08,  avg # of iterations =  4.0

     negative rho (up, down):  3.824E-01 0.000E+00

     total cpu time spent up to now is        2.6 secs

     total energy              =      -2.05924413 Ry
     estimated scf accuracy    <       0.00001230 Ry

     iteration # 34     ecut=     5.00 Ry     beta= 0.70
     Davidson diagonalization with overlap

---- Real-time Memory Report at c_bands before calling an iterative solver
            55 MiB given to the printing process from OS
             0 MiB allocation reported by mallinfo(arena+hblkhd)
           654 MiB available memory on the node where the printing process lives
------------------
     ethr =  5.12E-08,  avg # of iterations =  3.0

     negative rho (up, down):  3.815E-01 0.000E+00

     total cpu time spent up to now is        2.7 secs

     total energy              =      -2.05915911 Ry
     estimated scf accuracy    <       0.00002484 Ry

     iteration # 35     ecut=     5.00 Ry     beta= 0.70
     Davidson diagonalization with overlap

---- Real-time Memory Report at c_bands before calling an iterative solver
            55 MiB given to the printing process from OS
             0 MiB allocation reported by mallinfo(arena+hblkhd)
           654 MiB available memory on the node where the printing process lives
------------------
     ethr =  5.12E-08,  avg # of iterations =  4.0

     negative rho (up, down):  3.817E-01 0.000E+00

     total cpu time spent up to now is        2.8 secs

     total energy              =      -2.05918462 Ry
     estimated scf accuracy    <       0.00000431 Ry

     iteration # 36     ecut=     5.00 Ry     beta= 0.70
     Davidson diagonalization with overlap

---- Real-time Memory Report at c_bands before calling an iterative solver
            55 MiB given to the printing process from OS
             0 MiB allocation reported by mallinfo(arena+hblkhd)
           654 MiB available memory on the node where the printing process lives
------------------
     ethr =  5.12E-08,  avg # of iterations =  3.0

     negative rho (up, down):  3.815E-01 0.000E+00

     total cpu time spent up to now is        2.9 secs

     total energy              =      -2.05919096 Ry
     estimated scf accuracy    <       0.00000492 Ry

     iteration # 37     ecut=     5.00 Ry     beta= 0.70
     Davidson diagonalization with overlap

---- Real-time Memory Report at c_bands before calling an iterative solver
            55 MiB given to the printing process from OS
             0 MiB allocation reported by mallinfo(arena+hblkhd)
           654 MiB available memory on the node where the printing process lives
------------------
     ethr =  5.12E-08,  avg # of iterations =  4.0

     negative rho (up, down):  3.814E-01 0.000E+00

     total cpu time spent up to now is        2.9 secs

     total energy              =      -2.05939635 Ry
     estimated scf accuracy    <       0.00000874 Ry

     iteration # 38     ecut=     5.00 Ry     beta= 0.70
     Davidson diagonalization with overlap

---- Real-time Memory Report at c_bands before calling an iterative solver
            55 MiB given to the printing process from OS
             0 MiB allocation reported by mallinfo(arena+hblkhd)
           654 MiB available memory on the node where the printing process lives
------------------
     ethr =  5.12E-08,  avg # of iterations =  4.0

     negative rho (up, down):  3.818E-01 0.000E+00

     total cpu time spent up to now is        3.0 secs

     total energy              =      -2.05881963 Ry
     estimated scf accuracy    <       0.00005087 Ry

     iteration # 39     ecut=     5.00 Ry     beta= 0.70
     Davidson diagonalization with overlap

---- Real-time Memory Report at c_bands before calling an iterative solver
            55 MiB given to the printing process from OS
             0 MiB allocation reported by mallinfo(arena+hblkhd)
           654 MiB available memory on the node where the printing process lives
------------------
     ethr =  5.12E-08,  avg # of iterations =  5.0

     negative rho (up, down):  3.807E-01 0.000E+00

     total cpu time spent up to now is        3.1 secs

     total energy              =      -2.05957499 Ry
     estimated scf accuracy    <       0.00000546 Ry

     iteration # 40     ecut=     5.00 Ry     beta= 0.70
     Davidson diagonalization with overlap

---- Real-time Memory Report at c_bands before calling an iterative solver
            55 MiB given to the printing process from OS
             0 MiB allocation reported by mallinfo(arena+hblkhd)
           654 MiB available memory on the node where the printing process lives
------------------
     ethr =  5.12E-08,  avg # of iterations =  4.0

     negative rho (up, down):  3.811E-01 0.000E+00

     total cpu time spent up to now is        3.2 secs

     total energy              =      -2.05949005 Ry
     estimated scf accuracy    <       0.00000421 Ry

     iteration # 41     ecut=     5.00 Ry     beta= 0.70
     Davidson diagonalization with overlap

---- Real-time Memory Report at c_bands before calling an iterative solver
            55 MiB given to the printing process from OS
             0 MiB allocation reported by mallinfo(arena+hblkhd)
           654 MiB available memory on the node where the printing process lives
------------------
     ethr =  5.12E-08,  avg # of iterations =  3.0

     negative rho (up, down):  3.811E-01 0.000E+00

     total cpu time spent up to now is        3.2 secs

     total energy              =      -2.05950356 Ry
     estimated scf accuracy    <       0.00000013 Ry

     iteration # 42     ecut=     5.00 Ry     beta= 0.70
     Davidson diagonalization with overlap

---- Real-time Memory Report at c_bands before calling an iterative solver
            55 MiB given to the printing process from OS
             0 MiB allocation reported by mallinfo(arena+hblkhd)
           654 MiB available memory on the node where the printing process lives
------------------
     ethr =  6.67E-09,  avg # of iterations =  2.0

     negative rho (up, down):  3.810E-01 0.000E+00

     total cpu time spent up to now is        3.3 secs

     total energy              =      -2.05953147 Ry
     estimated scf accuracy    <       0.00000015 Ry

     iteration # 43     ecut=     5.00 Ry     beta= 0.70
     Davidson diagonalization with overlap

---- Real-time Memory Report at c_bands before calling an iterative solver
            55 MiB given to the printing process from OS
             0 MiB allocation reported by mallinfo(arena+hblkhd)
           654 MiB available memory on the node where the printing process lives
------------------
     ethr =  6.67E-09,  avg # of iterations =  4.0

     negative rho (up, down):  3.808E-01 0.000E+00

     total cpu time spent up to now is        3.4 secs

     total energy              =      -2.05963778 Ry
     estimated scf accuracy    <       0.00000088 Ry

     iteration # 44     ecut=     5.00 Ry     beta= 0.70
     Davidson diagonalization with overlap

---- Real-time Memory Report at c_bands before calling an iterative solver
            55 MiB given to the printing process from OS
             0 MiB allocation reported by mallinfo(arena+hblkhd)
           654 MiB available memory on the node where the printing process lives
------------------
     ethr =  6.67E-09,  avg # of iterations =  4.0

     negative rho (up, down):  3.809E-01 0.000E+00

     total cpu time spent up to now is        3.5 secs

     total energy              =      -2.05962001 Ry
     estimated scf accuracy    <       0.00000305 Ry

     iteration # 45     ecut=     5.00 Ry     beta= 0.70
     Davidson diagonalization with overlap

---- Real-time Memory Report at c_bands before calling an iterative solver
            55 MiB given to the printing process from OS
             0 MiB allocation reported by mallinfo(arena+hblkhd)
           654 MiB available memory on the node where the printing process lives
------------------
     ethr =  6.67E-09,  avg # of iterations =  3.0

     negative rho (up, down):  3.827E-01 0.000E+00

     total cpu time spent up to now is        3.5 secs

     total energy              =      -2.05895807 Ry
     estimated scf accuracy    <       0.00000237 Ry

     iteration # 46     ecut=     5.00 Ry     beta= 0.70
     Davidson diagonalization with overlap

---- Real-time Memory Report at c_bands before calling an iterative solver
            55 MiB given to the printing process from OS
             0 MiB allocation reported by mallinfo(arena+hblkhd)
           654 MiB available memory on the node where the printing process lives
------------------
     ethr =  6.67E-09,  avg # of iterations =  5.0

     negative rho (up, down):  3.822E-01 0.000E+00

     total cpu time spent up to now is        3.6 secs

     total energy              =      -2.05907430 Ry
     estimated scf accuracy    <       0.00004104 Ry

     iteration # 47     ecut=     5.00 Ry     beta= 0.70
     Davidson diagonalization with overlap

---- Real-time Memory Report at c_bands before calling an iterative solver
            55 MiB given to the printing process from OS
             0 MiB allocation reported by mallinfo(arena+hblkhd)
           654 MiB available memory on the node where the printing process lives
------------------
     ethr =  6.67E-09,  avg # of iterations =  4.0

     negative rho (up, down):  3.815E-01 0.000E+00

     total cpu time spent up to now is        3.7 secs

     total energy              =      -2.05915102 Ry
     estimated scf accuracy    <       0.00001176 Ry

     iteration # 48     ecut=     5.00 Ry     beta= 0.70
     Davidson diagonalization with overlap

---- Real-time Memory Report at c_bands before calling an iterative solver
            55 MiB given to the printing process from OS
             0 MiB allocation reported by mallinfo(arena+hblkhd)
           654 MiB available memory on the node where the printing process lives
------------------
     ethr =  6.67E-09,  avg # of iterations =  4.0

     negative rho (up, down):  3.816E-01 0.000E+00

     total cpu time spent up to now is        3.8 secs

     total energy              =      -2.05915160 Ry
     estimated scf accuracy    <       0.00000414 Ry

     iteration # 49     ecut=     5.00 Ry     beta= 0.70
     Davidson diagonalization with overlap

---- Real-time Memory Report at c_bands before calling an iterative solver
            55 MiB given to the printing process from OS
             0 MiB allocation reported by mallinfo(arena+hblkhd)
           654 MiB available memory on the node where the printing process lives
------------------
     ethr =  6.67E-09,  avg # of iterations =  4.0

     negative rho (up, down):  3.813E-01 0.000E+00

     total cpu time spent up to now is        3.8 secs

     total energy              =      -2.05924642 Ry
     estimated scf accuracy    <       0.00000298 Ry

     iteration # 50     ecut=     5.00 Ry     beta= 0.70
     Davidson diagonalization with overlap

---- Real-time Memory Report at c_bands before calling an iterative solver
            55 MiB given to the printing process from OS
             0 MiB allocation reported by mallinfo(arena+hblkhd)
           654 MiB available memory on the node where the printing process lives
------------------
     ethr =  6.67E-09,  avg # of iterations =  6.0

     negative rho (up, down):  3.804E-01 0.000E+00

     total cpu time spent up to now is        3.9 secs

     total energy              =      -2.05923846 Ry
     estimated scf accuracy    <       0.00009469 Ry

     iteration # 51     ecut=     5.00 Ry     beta= 0.70
     Davidson diagonalization with overlap

---- Real-time Memory Report at c_bands before calling an iterative solver
            55 MiB given to the printing process from OS
             0 MiB allocation reported by mallinfo(arena+hblkhd)
           654 MiB available memory on the node where the printing process lives
------------------
     ethr =  6.67E-09,  avg # of iterations =  6.0

     negative rho (up, down):  3.821E-01 0.000E+00

     total cpu time spent up to now is        4.0 secs

     total energy              =      -2.05894550 Ry
     estimated scf accuracy    <       0.00000444 Ry

     iteration # 52     ecut=     5.00 Ry     beta= 0.70
     Davidson diagonalization with overlap

---- Real-time Memory Report at c_bands before calling an iterative solver
            55 MiB given to the printing process from OS
             0 MiB allocation reported by mallinfo(arena+hblkhd)
           654 MiB available memory on the node where the printing process lives
------------------
     ethr =  6.67E-09,  avg # of iterations =  5.0

     negative rho (up, down):  3.822E-01 0.000E+00

     total cpu time spent up to now is        4.1 secs

     total energy              =      -2.05905460 Ry
     estimated scf accuracy    <       0.00001023 Ry

     iteration # 53     ecut=     5.00 Ry     beta= 0.70
     Davidson diagonalization with overlap

---- Real-time Memory Report at c_bands before calling an iterative solver
            55 MiB given to the printing process from OS
             0 MiB allocation reported by mallinfo(arena+hblkhd)
           654 MiB available memory on the node where the printing process lives
------------------
     ethr =  6.67E-09,  avg # of iterations =  4.0

     negative rho (up, down):  3.825E-01 0.000E+00

     total cpu time spent up to now is        4.2 secs

     total energy              =      -2.05910444 Ry
     estimated scf accuracy    <       0.00002321 Ry

     iteration # 54     ecut=     5.00 Ry     beta= 0.70
     Davidson diagonalization with overlap

---- Real-time Memory Report at c_bands before calling an iterative solver
            55 MiB given to the printing process from OS
             0 MiB allocation reported by mallinfo(arena+hblkhd)
           654 MiB available memory on the node where the printing process lives
------------------
     ethr =  6.67E-09,  avg # of iterations =  4.0

     negative rho (up, down):  3.828E-01 0.000E+00

     total cpu time spent up to now is        4.2 secs

     total energy              =      -2.05919149 Ry
     estimated scf accuracy    <       0.00003942 Ry

     iteration # 55     ecut=     5.00 Ry     beta= 0.70
     Davidson diagonalization with overlap

---- Real-time Memory Report at c_bands before calling an iterative solver
            55 MiB given to the printing process from OS
             0 MiB allocation reported by mallinfo(arena+hblkhd)
           654 MiB available memory on the node where the printing process lives
------------------
     ethr =  6.67E-09,  avg # of iterations =  4.0

     negative rho (up, down):  3.835E-01 0.000E+00

     total cpu time spent up to now is        4.3 secs

     total energy              =      -2.05918997 Ry
     estimated scf accuracy    <       0.00005553 Ry

     iteration # 56     ecut=     5.00 Ry     beta= 0.70
     Davidson diagonalization with overlap

---- Real-time Memory Report at c_bands before calling an iterative solver
            55 MiB given to the printing process from OS
             0 MiB allocation reported by mallinfo(arena+hblkhd)
           654 MiB available memory on the node where the printing process lives
------------------
     ethr =  6.67E-09,  avg # of iterations =  4.0

     negative rho (up, down):  3.819E-01 0.000E+00

     total cpu time spent up to now is        4.4 secs

     total energy              =      -2.05889027 Ry
     estimated scf accuracy    <       0.00010052 Ry

     iteration # 57     ecut=     5.00 Ry     beta= 0.70
     Davidson diagonalization with overlap

---- Real-time Memory Report at c_bands before calling an iterative solver
            55 MiB given to the printing process from OS
             0 MiB allocation reported by mallinfo(arena+hblkhd)
           654 MiB available memory on the node where the printing process lives
------------------
     ethr =  6.67E-09,  avg # of iterations =  5.0

     negative rho (up, down):  3.817E-01 0.000E+00

     total cpu time spent up to now is        4.5 secs

     total energy              =      -2.05911407 Ry
     estimated scf accuracy    <       0.00000477 Ry

     iteration # 58     ecut=     5.00 Ry     beta= 0.70
     Davidson diagonalization with overlap

---- Real-time Memory Report at c_bands before calling an iterative solver
            55 MiB given to the printing process from OS
             0 MiB allocation reported by mallinfo(arena+hblkhd)
           654 MiB available memory on the node where the printing process lives
------------------
     ethr =  6.67E-09,  avg # of iterations =  4.0

     negative rho (up, down):  3.818E-01 0.000E+00

     total cpu time spent up to now is        4.6 secs

     total energy              =      -2.05907336 Ry
     estimated scf accuracy    <       0.00000151 Ry

     iteration # 59     ecut=     5.00 Ry     beta= 0.70
     Davidson diagonalization with overlap

---- Real-time Memory Report at c_bands before calling an iterative solver
            55 MiB given to the printing process from OS
             0 MiB allocation reported by mallinfo(arena+hblkhd)
           654 MiB available memory on the node where the printing process lives
------------------
     ethr =  6.67E-09,  avg # of iterations =  2.0

     negative rho (up, down):  3.815E-01 0.000E+00

     total cpu time spent up to now is        4.6 secs

     total energy              =      -2.05914850 Ry
     estimated scf accuracy    <       0.00000155 Ry

     iteration # 60     ecut=     5.00 Ry     beta= 0.70
     Davidson diagonalization with overlap

---- Real-time Memory Report at c_bands before calling an iterative solver
            55 MiB given to the printing process from OS
             0 MiB allocation reported by mallinfo(arena+hblkhd)
           654 MiB available memory on the node where the printing process lives
------------------
     ethr =  6.67E-09,  avg # of iterations =  4.0

     negative rho (up, down):  3.819E-01 0.000E+00

     total cpu time spent up to now is        4.7 secs

     total energy              =      -2.05904360 Ry
     estimated scf accuracy    <       0.00000508 Ry

     iteration # 61     ecut=     5.00 Ry     beta= 0.70
     Davidson diagonalization with overlap

---- Real-time Memory Report at c_bands before calling an iterative solver
            55 MiB given to the printing process from OS
             0 MiB allocation reported by mallinfo(arena+hblkhd)
           654 MiB available memory on the node where the printing process lives
------------------
     ethr =  6.67E-09,  avg # of iterations =  4.0

     negative rho (up, down):  3.819E-01 0.000E+00

     total cpu time spent up to now is        4.8 secs

     total energy              =      -2.05915066 Ry
     estimated scf accuracy    <       0.00000397 Ry

     iteration # 62     ecut=     5.00 Ry     beta= 0.70
     Davidson diagonalization with overlap

---- Real-time Memory Report at c_bands before calling an iterative solver
            55 MiB given to the printing process from OS
             0 MiB allocation reported by mallinfo(arena+hblkhd)
           654 MiB available memory on the node where the printing process lives
------------------
     ethr =  6.67E-09,  avg # of iterations =  4.0

     negative rho (up, down):  3.817E-01 0.000E+00

     total cpu time spent up to now is        4.9 secs

     total energy              =      -2.05911552 Ry
     estimated scf accuracy    <       0.00000191 Ry

     iteration # 63     ecut=     5.00 Ry     beta= 0.70
     Davidson diagonalization with overlap

---- Real-time Memory Report at c_bands before calling an iterative solver
            55 MiB given to the printing process from OS
             0 MiB allocation reported by mallinfo(arena+hblkhd)
           654 MiB available memory on the node where the printing process lives
------------------
     ethr =  6.67E-09,  avg # of iterations =  3.0

     negative rho (up, down):  3.823E-01 0.000E+00

     total cpu time spent up to now is        4.9 secs

     total energy              =      -2.05909330 Ry
     estimated scf accuracy    <       0.00000079 Ry

     iteration # 64     ecut=     5.00 Ry     beta= 0.70
     Davidson diagonalization with overlap

---- Real-time Memory Report at c_bands before calling an iterative solver
            55 MiB given to the printing process from OS
             0 MiB allocation reported by mallinfo(arena+hblkhd)
           654 MiB available memory on the node where the printing process lives
------------------
     ethr =  6.67E-09,  avg # of iterations =  5.0

     negative rho (up, down):  3.831E-01 0.000E+00

     total cpu time spent up to now is        5.0 secs

     total energy              =      -2.05923780 Ry
     estimated scf accuracy    <       0.00001664 Ry

     iteration # 65     ecut=     5.00 Ry     beta= 0.70
     Davidson diagonalization with overlap

---- Real-time Memory Report at c_bands before calling an iterative solver
            55 MiB given to the printing process from OS
             0 MiB allocation reported by mallinfo(arena+hblkhd)
           654 MiB available memory on the node where the printing process lives
------------------
     ethr =  6.67E-09,  avg # of iterations =  5.0

     negative rho (up, down):  3.830E-01 0.000E+00

     total cpu time spent up to now is        5.1 secs

     total energy              =      -2.05930195 Ry
     estimated scf accuracy    <       0.00005874 Ry

     iteration # 66     ecut=     5.00 Ry     beta= 0.70
     Davidson diagonalization with overlap

---- Real-time Memory Report at c_bands before calling an iterative solver
            55 MiB given to the printing process from OS
             0 MiB allocation reported by mallinfo(arena+hblkhd)
           654 MiB available memory on the node where the printing process lives
------------------
     ethr =  6.67E-09,  avg # of iterations =  2.0

     negative rho (up, down):  3.821E-01 0.000E+00

     total cpu time spent up to now is        5.2 secs

     total energy              =      -2.05902170 Ry
     estimated scf accuracy    <       0.00005544 Ry

     iteration # 67     ecut=     5.00 Ry     beta= 0.70
     Davidson diagonalization with overlap

---- Real-time Memory Report at c_bands before calling an iterative solver
            55 MiB given to the printing process from OS
             0 MiB allocation reported by mallinfo(arena+hblkhd)
           654 MiB available memory on the node where the printing process lives
------------------
     ethr =  6.67E-09,  avg # of iterations =  5.0

     negative rho (up, down):  3.819E-01 0.000E+00

     total cpu time spent up to now is        5.2 secs

     total energy              =      -2.05906718 Ry
     estimated scf accuracy    <       0.00001016 Ry

     iteration # 68     ecut=     5.00 Ry     beta= 0.70
     Davidson diagonalization with overlap

---- Real-time Memory Report at c_bands before calling an iterative solver
            55 MiB given to the printing process from OS
             0 MiB allocation reported by mallinfo(arena+hblkhd)
           654 MiB available memory on the node where the printing process lives
------------------
     ethr =  6.67E-09,  avg # of iterations =  4.0

     negative rho (up, down):  3.816E-01 0.000E+00

     total cpu time spent up to now is        5.3 secs

     total energy              =      -2.05915728 Ry
     estimated scf accuracy    <       0.00000412 Ry

     iteration # 69     ecut=     5.00 Ry     beta= 0.70
     Davidson diagonalization with overlap

---- Real-time Memory Report at c_bands before calling an iterative solver
            55 MiB given to the printing process from OS
             0 MiB allocation reported by mallinfo(arena+hblkhd)
           654 MiB available memory on the node where the printing process lives
------------------
     ethr =  6.67E-09,  avg # of iterations =  3.0

     negative rho (up, down):  3.816E-01 0.000E+00

     total cpu time spent up to now is        5.4 secs

     total energy              =      -2.05915209 Ry
     estimated scf accuracy    <       0.00000190 Ry

     iteration # 70     ecut=     5.00 Ry     beta= 0.70
     Davidson diagonalization with overlap

---- Real-time Memory Report at c_bands before calling an iterative solver
            55 MiB given to the printing process from OS
             0 MiB allocation reported by mallinfo(arena+hblkhd)
           654 MiB available memory on the node where the printing process lives
------------------
     ethr =  6.67E-09,  avg # of iterations =  3.0

     negative rho (up, down):  3.815E-01 0.000E+00

     total cpu time spent up to now is        5.5 secs

     total energy              =      -2.05919010 Ry
     estimated scf accuracy    <       0.00000187 Ry

     iteration # 71     ecut=     5.00 Ry     beta= 0.70
     Davidson diagonalization with overlap

---- Real-time Memory Report at c_bands before calling an iterative solver
            55 MiB given to the printing process from OS
             0 MiB allocation reported by mallinfo(arena+hblkhd)
           654 MiB available memory on the node where the printing process lives
------------------
     ethr =  6.67E-09,  avg # of iterations =  4.0

     negative rho (up, down):  3.824E-01 0.000E+00

     total cpu time spent up to now is        5.5 secs

     total energy              =      -2.05908914 Ry
     estimated scf accuracy    <       0.00000621 Ry

     iteration # 72     ecut=     5.00 Ry     beta= 0.70
     Davidson diagonalization with overlap

---- Real-time Memory Report at c_bands before calling an iterative solver
            55 MiB given to the printing process from OS
             0 MiB allocation reported by mallinfo(arena+hblkhd)
           654 MiB available memory on the node where the printing process lives
------------------
     ethr =  6.67E-09,  avg # of iterations =  4.0

     negative rho (up, down):  3.819E-01 0.000E+00

     total cpu time spent up to now is        5.6 secs

     total energy              =      -2.05902428 Ry
     estimated scf accuracy    <       0.00002528 Ry

     iteration # 73     ecut=     5.00 Ry     beta= 0.70
     Davidson diagonalization with overlap

---- Real-time Memory Report at c_bands before calling an iterative solver
            55 MiB given to the printing process from OS
             0 MiB allocation reported by mallinfo(arena+hblkhd)
           654 MiB available memory on the node where the printing process lives
------------------
     ethr =  6.67E-09,  avg # of iterations =  4.0

     negative rho (up, down):  3.818E-01 0.000E+00

     total cpu time spent up to now is        5.7 secs

     total energy              =      -2.05917172 Ry
     estimated scf accuracy    <       0.00000617 Ry

     iteration # 74     ecut=     5.00 Ry     beta= 0.70
     Davidson diagonalization with overlap

---- Real-time Memory Report at c_bands before calling an iterative solver
            55 MiB given to the printing process from OS
             0 MiB allocation reported by mallinfo(arena+hblkhd)
           654 MiB available memory on the node where the printing process lives
------------------
     ethr =  6.67E-09,  avg # of iterations =  4.0

     negative rho (up, down):  3.822E-01 0.000E+00

     total cpu time spent up to now is        5.8 secs

     total energy              =      -2.05903627 Ry
     estimated scf accuracy    <       0.00000165 Ry

     iteration # 75     ecut=     5.00 Ry     beta= 0.70
     Davidson diagonalization with overlap

---- Real-time Memory Report at c_bands before calling an iterative solver
            55 MiB given to the printing process from OS
             0 MiB allocation reported by mallinfo(arena+hblkhd)
           654 MiB available memory on the node where the printing process lives
------------------
     ethr =  6.67E-09,  avg # of iterations =  5.0

     negative rho (up, down):  3.817E-01 0.000E+00

     total cpu time spent up to now is        5.9 secs

     total energy              =      -2.05909428 Ry
     estimated scf accuracy    <       0.00001604 Ry

     iteration # 76     ecut=     5.00 Ry     beta= 0.70
     Davidson diagonalization with overlap

---- Real-time Memory Report at c_bands before calling an iterative solver
            55 MiB given to the printing process from OS
             0 MiB allocation reported by mallinfo(arena+hblkhd)
           654 MiB available memory on the node where the printing process lives
------------------
     ethr =  6.67E-09,  avg # of iterations =  4.0

     negative rho (up, down):  3.817E-01 0.000E+00

     total cpu time spent up to now is        5.9 secs

     total energy              =      -2.05912398 Ry
     estimated scf accuracy    <       0.00000198 Ry

     iteration # 77     ecut=     5.00 Ry     beta= 0.70
     Davidson diagonalization with overlap

---- Real-time Memory Report at c_bands before calling an iterative solver
            55 MiB given to the printing process from OS
             0 MiB allocation reported by mallinfo(arena+hblkhd)
           654 MiB available memory on the node where the printing process lives
------------------
     ethr =  6.67E-09,  avg # of iterations =  2.0

     negative rho (up, down):  3.820E-01 0.000E+00

     total cpu time spent up to now is        6.0 secs

     total energy              =      -2.05909686 Ry
     estimated scf accuracy    <       0.00000174 Ry

     iteration # 78     ecut=     5.00 Ry     beta= 0.70
     Davidson diagonalization with overlap

---- Real-time Memory Report at c_bands before calling an iterative solver
            55 MiB given to the printing process from OS
             0 MiB allocation reported by mallinfo(arena+hblkhd)
           654 MiB available memory on the node where the printing process lives
------------------
     ethr =  6.67E-09,  avg # of iterations =  4.0

     negative rho (up, down):  3.820E-01 0.000E+00

     total cpu time spent up to now is        6.1 secs

     total energy              =      -2.05907437 Ry
     estimated scf accuracy    <       0.00001001 Ry

     iteration # 79     ecut=     5.00 Ry     beta= 0.70
     Davidson diagonalization with overlap

---- Real-time Memory Report at c_bands before calling an iterative solver
            55 MiB given to the printing process from OS
             0 MiB allocation reported by mallinfo(arena+hblkhd)
           654 MiB available memory on the node where the printing process lives
------------------
     ethr =  6.67E-09,  avg # of iterations =  4.0

     negative rho (up, down):  3.817E-01 0.000E+00

     total cpu time spent up to now is        6.2 secs

     total energy              =      -2.05909462 Ry
     estimated scf accuracy    <       0.00000645 Ry

     iteration # 80     ecut=     5.00 Ry     beta= 0.70
     Davidson diagonalization with overlap

---- Real-time Memory Report at c_bands before calling an iterative solver
            55 MiB given to the printing process from OS
             0 MiB allocation reported by mallinfo(arena+hblkhd)
           654 MiB available memory on the node where the printing process lives
------------------
     ethr =  6.67E-09,  avg # of iterations =  4.0

     negative rho (up, down):  3.816E-01 0.000E+00

     total cpu time spent up to now is        6.2 secs

     total energy              =      -2.05917338 Ry
     estimated scf accuracy    <       0.00000195 Ry

     iteration # 81     ecut=     5.00 Ry     beta= 0.70
     Davidson diagonalization with overlap

---- Real-time Memory Report at c_bands before calling an iterative solver
            55 MiB given to the printing process from OS
             0 MiB allocation reported by mallinfo(arena+hblkhd)
           654 MiB available memory on the node where the printing process lives
------------------
     ethr =  6.67E-09,  avg # of iterations =  4.0

     negative rho (up, down):  3.819E-01 0.000E+00

     total cpu time spent up to now is        6.3 secs

     total energy              =      -2.05909527 Ry
     estimated scf accuracy    <       0.00000398 Ry

     iteration # 82     ecut=     5.00 Ry     beta= 0.70
     Davidson diagonalization with overlap

---- Real-time Memory Report at c_bands before calling an iterative solver
            55 MiB given to the printing process from OS
             0 MiB allocation reported by mallinfo(arena+hblkhd)
           654 MiB available memory on the node where the printing process lives
------------------
     ethr =  6.67E-09,  avg # of iterations =  3.0

     negative rho (up, down):  3.821E-01 0.000E+00

     total cpu time spent up to now is        6.4 secs

     total energy              =      -2.05908845 Ry
     estimated scf accuracy    <       0.00000535 Ry

     iteration # 83     ecut=     5.00 Ry     beta= 0.70
     Davidson diagonalization with overlap

---- Real-time Memory Report at c_bands before calling an iterative solver
            55 MiB given to the printing process from OS
             0 MiB allocation reported by mallinfo(arena+hblkhd)
           654 MiB available memory on the node where the printing process lives
------------------
     ethr =  6.67E-09,  avg # of iterations =  4.0

     negative rho (up, down):  3.815E-01 0.000E+00

     total cpu time spent up to now is        6.5 secs

     total energy              =      -2.05922333 Ry
     estimated scf accuracy    <       0.00001043 Ry

     iteration # 84     ecut=     5.00 Ry     beta= 0.70
     Davidson diagonalization with overlap

---- Real-time Memory Report at c_bands before calling an iterative solver
            55 MiB given to the printing process from OS
             0 MiB allocation reported by mallinfo(arena+hblkhd)
           654 MiB available memory on the node where the printing process lives
------------------
     ethr =  6.67E-09,  avg # of iterations =  4.0

     negative rho (up, down):  3.810E-01 0.000E+00

     total cpu time spent up to now is        6.5 secs

     total energy              =      -2.05955020 Ry
     estimated scf accuracy    <       0.00000912 Ry

     iteration # 85     ecut=     5.00 Ry     beta= 0.70
     Davidson diagonalization with overlap

---- Real-time Memory Report at c_bands before calling an iterative solver
            55 MiB given to the printing process from OS
             0 MiB allocation reported by mallinfo(arena+hblkhd)
           654 MiB available memory on the node where the printing process lives
------------------
     ethr =  6.67E-09,  avg # of iterations =  4.0

     negative rho (up, down):  3.803E-01 0.000E+00

     total cpu time spent up to now is        6.6 secs

     total energy              =      -2.05984018 Ry
     estimated scf accuracy    <       0.00000125 Ry

     iteration # 86     ecut=     5.00 Ry     beta= 0.70
     Davidson diagonalization with overlap

---- Real-time Memory Report at c_bands before calling an iterative solver
            55 MiB given to the printing process from OS
             0 MiB allocation reported by mallinfo(arena+hblkhd)
           654 MiB available memory on the node where the printing process lives
------------------
     ethr =  6.67E-09,  avg # of iterations =  4.0

     negative rho (up, down):  3.811E-01 0.000E+00

     total cpu time spent up to now is        6.7 secs

     total energy              =      -2.05942947 Ry
     estimated scf accuracy    <       0.00000460 Ry

     iteration # 87     ecut=     5.00 Ry     beta= 0.70
     Davidson diagonalization with overlap

---- Real-time Memory Report at c_bands before calling an iterative solver
            55 MiB given to the printing process from OS
             0 MiB allocation reported by mallinfo(arena+hblkhd)
           654 MiB available memory on the node where the printing process lives
------------------
     ethr =  6.67E-09,  avg # of iterations =  5.0

     negative rho (up, down):  3.824E-01 0.000E+00

     total cpu time spent up to now is        6.8 secs

     total energy              =      -2.05908516 Ry
     estimated scf accuracy    <       0.00000680 Ry

     iteration # 88     ecut=     5.00 Ry     beta= 0.70
     Davidson diagonalization with overlap

---- Real-time Memory Report at c_bands before calling an iterative solver
            55 MiB given to the printing process from OS
             0 MiB allocation reported by mallinfo(arena+hblkhd)
           654 MiB available memory on the node where the printing process lives
------------------
     ethr =  6.67E-09,  avg # of iterations =  4.0

     negative rho (up, down):  3.819E-01 0.000E+00

     total cpu time spent up to now is        6.8 secs

     total energy              =      -2.05902258 Ry
     estimated scf accuracy    <       0.00002278 Ry

     iteration # 89     ecut=     5.00 Ry     beta= 0.70
     Davidson diagonalization with overlap

---- Real-time Memory Report at c_bands before calling an iterative solver
            55 MiB given to the printing process from OS
             0 MiB allocation reported by mallinfo(arena+hblkhd)
           654 MiB available memory on the node where the printing process lives
------------------
     ethr =  6.67E-09,  avg # of iterations =  5.0

     negative rho (up, down):  3.845E-01 0.000E+00

     total cpu time spent up to now is        6.9 secs

     total energy              =      -2.05893497 Ry
     estimated scf accuracy    <       0.00000447 Ry

     iteration # 90     ecut=     5.00 Ry     beta= 0.70
     Davidson diagonalization with overlap

---- Real-time Memory Report at c_bands before calling an iterative solver
            55 MiB given to the printing process from OS
             0 MiB allocation reported by mallinfo(arena+hblkhd)
           654 MiB available memory on the node where the printing process lives
------------------
     ethr =  6.67E-09,  avg # of iterations =  5.0

     negative rho (up, down):  3.843E-01 0.000E+00

     total cpu time spent up to now is        7.0 secs

     total energy              =      -2.05910125 Ry
     estimated scf accuracy    <       0.00021160 Ry

     iteration # 91     ecut=     5.00 Ry     beta= 0.70
     Davidson diagonalization with overlap

---- Real-time Memory Report at c_bands before calling an iterative solver
            55 MiB given to the printing process from OS
             0 MiB allocation reported by mallinfo(arena+hblkhd)
           654 MiB available memory on the node where the printing process lives
------------------
     ethr =  6.67E-09,  avg # of iterations =  4.0

     negative rho (up, down):  3.818E-01 0.000E+00

     total cpu time spent up to now is        7.1 secs

     total energy              =      -2.05876153 Ry
     estimated scf accuracy    <       0.00017080 Ry

     iteration # 92     ecut=     5.00 Ry     beta= 0.70
     Davidson diagonalization with overlap

---- Real-time Memory Report at c_bands before calling an iterative solver
            55 MiB given to the printing process from OS
             0 MiB allocation reported by mallinfo(arena+hblkhd)
           654 MiB available memory on the node where the printing process lives
------------------
     ethr =  6.67E-09,  avg # of iterations =  6.0

     negative rho (up, down):  3.811E-01 0.000E+00

     total cpu time spent up to now is        7.2 secs

     total energy              =      -2.05950989 Ry
     estimated scf accuracy    <       0.00000224 Ry

     iteration # 93     ecut=     5.00 Ry     beta= 0.70
     Davidson diagonalization with overlap

---- Real-time Memory Report at c_bands before calling an iterative solver
            55 MiB given to the printing process from OS
             0 MiB allocation reported by mallinfo(arena+hblkhd)
           654 MiB available memory on the node where the printing process lives
------------------
     ethr =  6.67E-09,  avg # of iterations =  4.0

     negative rho (up, down):  3.813E-01 0.000E+00

     total cpu time spent up to now is        7.2 secs

     total energy              =      -2.05935376 Ry
     estimated scf accuracy    <       0.00000044 Ry

     iteration # 94     ecut=     5.00 Ry     beta= 0.70
     Davidson diagonalization with overlap

---- Real-time Memory Report at c_bands before calling an iterative solver
            55 MiB given to the printing process from OS
             0 MiB allocation reported by mallinfo(arena+hblkhd)
           654 MiB available memory on the node where the printing process lives
------------------
     ethr =  6.67E-09,  avg # of iterations =  6.0

     negative rho (up, down):  3.814E-01 0.000E+00

     total cpu time spent up to now is        7.3 secs

     total energy              =      -2.05846418 Ry
     estimated scf accuracy    <       0.00020087 Ry

     iteration # 95     ecut=     5.00 Ry     beta= 0.70
     Davidson diagonalization with overlap

---- Real-time Memory Report at c_bands before calling an iterative solver
            55 MiB given to the printing process from OS
             0 MiB allocation reported by mallinfo(arena+hblkhd)
           654 MiB available memory on the node where the printing process lives
------------------
     ethr =  6.67E-09,  avg # of iterations =  6.0

     negative rho (up, down):  3.806E-01 0.000E+00

     total cpu time spent up to now is        7.4 secs

     total energy              =      -2.05957474 Ry
     estimated scf accuracy    <       0.00001562 Ry

     iteration # 96     ecut=     5.00 Ry     beta= 0.70
     Davidson diagonalization with overlap

---- Real-time Memory Report at c_bands before calling an iterative solver
            55 MiB given to the printing process from OS
             0 MiB allocation reported by mallinfo(arena+hblkhd)
           654 MiB available memory on the node where the printing process lives
------------------
     ethr =  6.67E-09,  avg # of iterations =  5.0

     negative rho (up, down):  3.810E-01 0.000E+00

     total cpu time spent up to now is        7.5 secs

     total energy              =      -2.05951327 Ry
     estimated scf accuracy    <       0.00000480 Ry

     iteration # 97     ecut=     5.00 Ry     beta= 0.70
     Davidson diagonalization with overlap

---- Real-time Memory Report at c_bands before calling an iterative solver
            55 MiB given to the printing process from OS
             0 MiB allocation reported by mallinfo(arena+hblkhd)
           654 MiB available memory on the node where the printing process lives
------------------
     ethr =  6.67E-09,  avg # of iterations =  4.0

     negative rho (up, down):  3.808E-01 0.000E+00

     total cpu time spent up to now is        7.6 secs

     total energy              =      -2.05959317 Ry
     estimated scf accuracy    <       0.00000043 Ry

     iteration # 98     ecut=     5.00 Ry     beta= 0.70
     Davidson diagonalization with overlap

---- Real-time Memory Report at c_bands before calling an iterative solver
            55 MiB given to the printing process from OS
             0 MiB allocation reported by mallinfo(arena+hblkhd)
           654 MiB available memory on the node where the printing process lives
------------------
     ethr =  6.67E-09,  avg # of iterations =  4.0

     negative rho (up, down):  3.812E-01 0.000E+00

     total cpu time spent up to now is        7.7 secs

     total energy              =      -2.05933243 Ry
     estimated scf accuracy    <       0.00000383 Ry

     iteration # 99     ecut=     5.00 Ry     beta= 0.70
     Davidson diagonalization with overlap

---- Real-time Memory Report at c_bands before calling an iterative solver
            55 MiB given to the printing process from OS
             0 MiB allocation reported by mallinfo(arena+hblkhd)
           654 MiB available memory on the node where the printing process lives
------------------
     ethr =  6.67E-09,  avg # of iterations =  5.0

     negative rho (up, down):  3.848E-01 0.000E+00

     total cpu time spent up to now is        7.7 secs

     total energy              =      -2.05899016 Ry
     estimated scf accuracy    <       0.00003179 Ry

     iteration #100     ecut=     5.00 Ry     beta= 0.70
     Davidson diagonalization with overlap

---- Real-time Memory Report at c_bands before calling an iterative solver
            55 MiB given to the printing process from OS
             0 MiB allocation reported by mallinfo(arena+hblkhd)
           654 MiB available memory on the node where the printing process lives
------------------
     ethr =  6.67E-09,  avg # of iterations =  5.0

     negative rho (up, down):  3.841E-01 0.000E+00

     total cpu time spent up to now is        7.8 secs

     total energy              =      -2.05904482 Ry
     estimated scf accuracy    <       0.00020501 Ry

     End of self-consistent calculation

     convergence NOT achieved after 100 iterations: stopping

     Writing config to output data dir ./.save/
     Message from routine punch:
     wavefunctions written to file

     init_run     :      0.07s CPU      0.08s WALL (       1 calls)
     electrons    :      7.68s CPU      7.73s WALL (       1 calls)

     Called by init_run:
     wfcinit      :      0.01s CPU      0.01s WALL (       1 calls)
     wfcinit:atom :      0.00s CPU      0.00s WALL (       1 calls)
     wfcinit:wfcr :      0.00s CPU      0.00s WALL (       1 calls)
     potinit      :      0.04s CPU      0.05s WALL (       1 calls)
     hinit0       :      0.01s CPU      0.01s WALL (       1 calls)

     Called by electrons:
     c_bands      :      1.81s CPU      1.82s WALL (     100 calls)
     sum_band     :      0.79s CPU      0.80s WALL (     100 calls)
     v_of_rho     :      3.94s CPU      3.96s WALL (     101 calls)
     v_h          :      0.20s CPU      0.20s WALL (     101 calls)
     v_xc         :      3.74s CPU      3.76s WALL (     101 calls)
     newd         :      0.24s CPU      0.25s WALL (     101 calls)
     mix_rho      :      0.85s CPU      0.86s WALL (     100 calls)

     Called by c_bands:
     init_us_2    :      0.03s CPU      0.03s WALL (     201 calls)
     init_us_2:cp :      0.02s CPU      0.03s WALL (     201 calls)
     cegterg      :      1.79s CPU      1.80s WALL (     100 calls)

     Called by sum_band:
     sum_band:wei :      0.00s CPU      0.00s WALL (     100 calls)
     sum_band:loo :      0.23s CPU      0.23s WALL (     100 calls)
     sum_band:buf :      0.00s CPU      0.00s WALL (     100 calls)
     sum_band:ini :      0.01s CPU      0.01s WALL (     100 calls)
     sum_band:cal :      0.00s CPU      0.00s WALL (     100 calls)
     sum_band:bec :      0.00s CPU      0.00s WALL (     100 calls)
     addusdens    :      0.07s CPU      0.07s WALL (     100 calls)
     addusd:skk   :      0.03s CPU      0.03s WALL (     100 calls)
     addusd:dgemm :      0.02s CPU      0.02s WALL (     100 calls)
     addusd:qvan2 :      0.02s CPU      0.02s WALL (     100 calls)

     Called by *egterg:
     cdiaghg      :      0.01s CPU      0.01s WALL (     502 calls)
     cegterg:over :      0.02s CPU      0.03s WALL (     402 calls)
     cegterg:upda :      0.02s CPU      0.02s WALL (     402 calls)
     cegterg:last :      0.04s CPU      0.04s WALL (     319 calls)
     h_psi        :      1.66s CPU      1.67s WALL (     503 calls)
     s_psi        :      0.01s CPU      0.01s WALL (     503 calls)
     g_psi        :      0.01s CPU      0.01s WALL (     402 calls)

     Called by h_psi:
     h_psi:calbec :      0.01s CPU      0.01s WALL (     503 calls)
     vloc_psi     :      1.63s CPU      1.64s WALL (     503 calls)
     add_vuspsi   :      0.01s CPU      0.01s WALL (     503 calls)

     General routines
     calbec       :      0.01s CPU      0.01s WALL (     603 calls)
     fft          :      1.70s CPU      1.71s WALL (    1111 calls)
     ffts         :      0.15s CPU      0.16s WALL (     100 calls)
     fftw         :      1.70s CPU      1.71s WALL (    1758 calls)
     davcio       :      0.00s CPU      0.00s WALL (      19 calls)


     PWSCF        :      7.77s CPU      7.83s WALL


   This run was terminated on:  14: 1: 8  28Feb2022            

=------------------------------------------------------------------------------=
   JOB DONE.
=------------------------------------------------------------------------------=
