
     Program PWSCF v.7.0 starts on 28Feb2022 at 14: 1:58 

     This program is part of the open-source Quantum ESPRESSO suite
     for quantum simulation of materials; please cite
         "P. Giannozzi et al., J. Phys.:Condens. Matter 21 395502 (2009);
         "P. Giannozzi et al., J. Phys.:Condens. Matter 29 465901 (2017);
         "P. Giannozzi et al., J. Chem. Phys. 152 154105 (2020);
          URL http://www.quantum-espresso.org", 
     in publications or presentations arising from this work. More details at
     http://www.quantum-espresso.org/quote

     Serial version
     693 MiB available memory on the printing compute node when the environment starts

     Waiting for input...
     Reading input from standard input

     Current dimensions of program PWSCF are:
     Max number of different atomic species (ntypx) = 10
     Max number of k-points (npk) =  40000
     Max angular momentum in pseudopotentials (lmaxx) =  4

    ============================================================
    |  pseudopotential report for atomic species:  1           |
    |        pseudo potential version   7   3   2              |
    ------------------------------------------------------------
    |  hydrogen            PBE                  exchange-corr  |
    |  z =   1.    zv( 1) =   1.    exfact =   5.00000         |
    |  ifpcor =  0           atomic energy =  -0.91772 Ry      |
    |  index    orbital      occupation    energy              |
    |    1        100           1.00       -0.48               |
    |  rinner =  0.5000                                        |
    |    new generation scheme:                                |
    |    nbeta =  1     kkbeta =  271     rcloc =    0.6000    |
    |    ibeta    l     epsilon   rcut                         |
    |      1       0      -0.48   0.80                         |
    ============================================================

     IMPORTANT: XC functional enforced from input :
     Exchange-correlation= BLYP
                           (   1   3   1   3   0   0   0)
     Any further DFT definition will be discarded
     Please, verify this is what you really want


     G-vector sticks info
     --------------------
     sticks:   dense  smooth     PW     G-vecs:    dense   smooth      PW
     Sum        2869    2869    793               115313   115313   17071

     Using Slab Decomposition



     bravais-lattice index     =            1
     lattice parameter (alat)  =      30.0000  a.u.
     unit-cell volume          =   27000.0000 (a.u.)^3
     number of atoms/cell      =            2
     number of atomic types    =            1
     number of electrons       =         2.00
     number of Kohn-Sham states=            2
     kinetic-energy cutoff     =      10.0000  Ry
     charge density cutoff     =      40.0000  Ry
     scf convergence threshold =      1.0E-08
     mixing beta               =       0.7000
     number of iterations used =            8  plain     mixing
     Exchange-correlation= BLYP
                           (   1   3   1   3   0   0   0)

     celldm(1)=  30.000000  celldm(2)=   0.000000  celldm(3)=   0.000000
     celldm(4)=   0.000000  celldm(5)=   0.000000  celldm(6)=   0.000000

     crystal axes: (cart. coord. in units of alat)
               a(1) = (   1.000000   0.000000   0.000000 )  
               a(2) = (   0.000000   1.000000   0.000000 )  
               a(3) = (   0.000000   0.000000   1.000000 )  

     reciprocal axes: (cart. coord. in units 2 pi/alat)
               b(1) = (  1.000000  0.000000  0.000000 )  
               b(2) = (  0.000000  1.000000  0.000000 )  
               b(3) = (  0.000000  0.000000  1.000000 )  


     PseudoPot. # 1 for hy read from file:
     /root/q-e/pseudo/H_US.van
     MD5 check sum: a9a9bfe98ff56cf4de197d71fc46bb44
     Pseudo is Ultrasoft, Zval =  1.0
     Generated by Vanderbilt code, v. 7.3.2
     Using radial grid of  399 points,  1 beta functions with: 
                l(1) =   0
     Q(r) pseudized with  8 coefficients,  rinner =    0.500

     atomic species   valence    mass     pseudopotential
        H              1.00     1.00784     hy( 1.00)

      8 Sym. Ops. (no inversion) found


                                    s                        frac. trans.

      isym =  1     identity                                     

 cryst.   s( 1) = (     1          0          0      )
                  (     0          1          0      )
                  (     0          0          1      )

 cart.    s( 1) = (  1.0000000  0.0000000  0.0000000 )
                  (  0.0000000  1.0000000  0.0000000 )
                  (  0.0000000  0.0000000  1.0000000 )


      isym =  2     180 deg rotation - cart. axis [1,0,0]        

 cryst.   s( 2) = (     1          0          0      )
                  (     0         -1          0      )
                  (     0          0         -1      )

 cart.    s( 2) = (  1.0000000  0.0000000  0.0000000 )
                  (  0.0000000 -1.0000000  0.0000000 )
                  (  0.0000000  0.0000000 -1.0000000 )


      isym =  3      90 deg rotation - cart. axis [-1,0,0]       

 cryst.   s( 3) = (     1          0          0      )
                  (     0          0         -1      )
                  (     0          1          0      )

 cart.    s( 3) = (  1.0000000  0.0000000  0.0000000 )
                  (  0.0000000  0.0000000  1.0000000 )
                  (  0.0000000 -1.0000000  0.0000000 )


      isym =  4      90 deg rotation - cart. axis [1,0,0]        

 cryst.   s( 4) = (     1          0          0      )
                  (     0          0          1      )
                  (     0         -1          0      )

 cart.    s( 4) = (  1.0000000  0.0000000  0.0000000 )
                  (  0.0000000  0.0000000 -1.0000000 )
                  (  0.0000000  1.0000000  0.0000000 )


      isym =  5     inv. 180 deg rotation - cart. axis [0,0,1]   

 cryst.   s( 5) = (     1          0          0      )
                  (     0          1          0      )
                  (     0          0         -1      )

 cart.    s( 5) = (  1.0000000  0.0000000  0.0000000 )
                  (  0.0000000  1.0000000  0.0000000 )
                  (  0.0000000  0.0000000 -1.0000000 )


      isym =  6     inv. 180 deg rotation - cart. axis [0,1,0]   

 cryst.   s( 6) = (     1          0          0      )
                  (     0         -1          0      )
                  (     0          0          1      )

 cart.    s( 6) = (  1.0000000  0.0000000  0.0000000 )
                  (  0.0000000 -1.0000000  0.0000000 )
                  (  0.0000000  0.0000000  1.0000000 )


      isym =  7     inv. 180 deg rotation - cart. axis [0,1,1]   

 cryst.   s( 7) = (     1          0          0      )
                  (     0          0         -1      )
                  (     0         -1          0      )

 cart.    s( 7) = (  1.0000000  0.0000000  0.0000000 )
                  (  0.0000000  0.0000000 -1.0000000 )
                  (  0.0000000 -1.0000000  0.0000000 )


      isym =  8     inv. 180 deg rotation - cart. axis [0,1,-1]  

 cryst.   s( 8) = (     1          0          0      )
                  (     0          0          1      )
                  (     0          1          0      )

 cart.    s( 8) = (  1.0000000  0.0000000  0.0000000 )
                  (  0.0000000  0.0000000  1.0000000 )
                  (  0.0000000  1.0000000  0.0000000 )


     point group C_4v (4mm) 
     there are  5 classes
     the character table:

       E     2C4   C2    2s_v  2s_d 
A_1    1.00  1.00  1.00  1.00  1.00
A_2    1.00  1.00  1.00 -1.00 -1.00
B_1    1.00 -1.00  1.00  1.00 -1.00
B_2    1.00 -1.00  1.00 -1.00  1.00
E      2.00  0.00 -2.00  0.00  0.00

     the symmetry operations in each class and the name of the first element:

     E        1
          identity                                               
     2C4      3    4
           90 deg rotation - cart. axis [-1,0,0]                 
     C2       2
          180 deg rotation - cart. axis [1,0,0]                  
     2s_v     5    6
          inv. 180 deg rotation - cart. axis [0,0,1]             
     2s_d     7    8
          inv. 180 deg rotation - cart. axis [0,1,1]             

   Cartesian axes

     site n.     atom                  positions (alat units)
         1           H   tau(   1) = (   0.0000000   0.0000000   0.0000000  )
         2           H   tau(   2) = (   0.0453534   0.0000000   0.0000000  )

   Crystallographic axes

     site n.     atom                  positions (cryst. coord.)
         1           H   tau(   1) = (  0.0000000  0.0000000  0.0000000  )
         2           H   tau(   2) = (  0.0453534  0.0000000  0.0000000  )

     number of k points=     1
                       cart. coord. in units 2pi/alat
        k(    1) = (  -0.5000000  -0.5000000  -0.5000000), wk =   2.0000000

                       cryst. coord.
        k(    1) = (  -0.5000000  -0.5000000  -0.5000000), wk =   2.0000000

     Dense  grid:   115313 G-vectors     FFT dimensions: (  64,  64,  64)

     Dynamical RAM for                 wfc:       0.44 MB

     Dynamical RAM for     wfc (w. buffer):       0.44 MB

     Dynamical RAM for           str. fact:       1.76 MB

     Dynamical RAM for           local pot:       0.00 MB

     Dynamical RAM for          nlocal pot:       0.44 MB

     Dynamical RAM for                qrad:       0.00 MB

     Dynamical RAM for          rho,v,vnew:      11.28 MB

     Dynamical RAM for               rhoin:       3.76 MB

     Dynamical RAM for            rho*nmix:      28.15 MB

     Dynamical RAM for           G-vectors:       7.48 MB

     Dynamical RAM for          h,s,v(r/c):       0.00 MB

     Dynamical RAM for          <psi|beta>:       0.00 MB

     Dynamical RAM for                 psi:       0.88 MB

     Dynamical RAM for                hpsi:       0.88 MB

     Dynamical RAM for                spsi:       0.88 MB

     Dynamical RAM for      wfcinit/wfcrot:       0.88 MB

     Dynamical RAM for           addusdens:      10.56 MB

     Estimated static dynamical RAM per process >      38.68 MB

     Estimated max dynamical RAM per process >      77.39 MB

     Initial potential from superposition of free atoms

     starting charge       2.0000, renormalised to       2.0000

     negative rho (up, down):  2.141E-01 0.000E+00
     Starting wfcs are    2 randomized atomic wfcs

     total cpu time spent up to now is        0.2 secs

     Self-consistent Calculation

     iteration #  1     ecut=    10.00 Ry     beta= 0.70
     Davidson diagonalization with overlap

---- Real-time Memory Report at c_bands before calling an iterative solver
            81 MiB given to the printing process from OS
             0 MiB allocation reported by mallinfo(arena+hblkhd)
           645 MiB available memory on the node where the printing process lives
------------------
     ethr =  1.00E-02,  avg # of iterations =  5.0

     negative rho (up, down):  3.293E-01 0.000E+00

     total cpu time spent up to now is        0.5 secs

     total energy              =      -2.24036401 Ry
     estimated scf accuracy    <       0.12059920 Ry

     iteration #  2     ecut=    10.00 Ry     beta= 0.70
     Davidson diagonalization with overlap

---- Real-time Memory Report at c_bands before calling an iterative solver
           102 MiB given to the printing process from OS
             0 MiB allocation reported by mallinfo(arena+hblkhd)
           605 MiB available memory on the node where the printing process lives
------------------
     ethr =  6.03E-03,  avg # of iterations =  1.0

     negative rho (up, down):  3.521E-01 0.000E+00

     total cpu time spent up to now is        0.7 secs

     total energy              =      -2.23948212 Ry
     estimated scf accuracy    <       0.00153673 Ry

     iteration #  3     ecut=    10.00 Ry     beta= 0.70
     Davidson diagonalization with overlap

---- Real-time Memory Report at c_bands before calling an iterative solver
           105 MiB given to the printing process from OS
             0 MiB allocation reported by mallinfo(arena+hblkhd)
           601 MiB available memory on the node where the printing process lives
------------------
     ethr =  7.68E-05,  avg # of iterations =  9.0

     negative rho (up, down):  3.538E-01 0.000E+00

     total cpu time spent up to now is        1.0 secs

     total energy              =      -2.23897599 Ry
     estimated scf accuracy    <       0.00000640 Ry

     iteration #  4     ecut=    10.00 Ry     beta= 0.70
     Davidson diagonalization with overlap

---- Real-time Memory Report at c_bands before calling an iterative solver
           109 MiB given to the printing process from OS
             0 MiB allocation reported by mallinfo(arena+hblkhd)
           598 MiB available memory on the node where the printing process lives
------------------
     ethr =  3.20E-07,  avg # of iterations =  7.0

     negative rho (up, down):  3.534E-01 0.000E+00

     total cpu time spent up to now is        1.2 secs

     total energy              =      -2.23906356 Ry
     estimated scf accuracy    <       0.00001886 Ry

     iteration #  5     ecut=    10.00 Ry     beta= 0.70
     Davidson diagonalization with overlap

---- Real-time Memory Report at c_bands before calling an iterative solver
           112 MiB given to the printing process from OS
             0 MiB allocation reported by mallinfo(arena+hblkhd)
           594 MiB available memory on the node where the printing process lives
------------------
     ethr =  3.20E-07,  avg # of iterations =  4.0

     negative rho (up, down):  3.531E-01 0.000E+00

     total cpu time spent up to now is        1.5 secs

     total energy              =      -2.23933934 Ry
     estimated scf accuracy    <       0.00000354 Ry

     iteration #  6     ecut=    10.00 Ry     beta= 0.70
     Davidson diagonalization with overlap

---- Real-time Memory Report at c_bands before calling an iterative solver
           116 MiB given to the printing process from OS
             0 MiB allocation reported by mallinfo(arena+hblkhd)
           591 MiB available memory on the node where the printing process lives
------------------
     ethr =  1.77E-07,  avg # of iterations =  3.0

     negative rho (up, down):  3.537E-01 0.000E+00

     total cpu time spent up to now is        1.7 secs

     total energy              =      -2.23915425 Ry
     estimated scf accuracy    <       0.00000898 Ry

     iteration #  7     ecut=    10.00 Ry     beta= 0.70
     Davidson diagonalization with overlap

---- Real-time Memory Report at c_bands before calling an iterative solver
           119 MiB given to the printing process from OS
             0 MiB allocation reported by mallinfo(arena+hblkhd)
           587 MiB available memory on the node where the printing process lives
------------------
     ethr =  1.77E-07,  avg # of iterations =  3.0

     negative rho (up, down):  3.537E-01 0.000E+00

     total cpu time spent up to now is        1.9 secs

     total energy              =      -2.23919528 Ry
     estimated scf accuracy    <       0.00000028 Ry

     iteration #  8     ecut=    10.00 Ry     beta= 0.70
     Davidson diagonalization with overlap

---- Real-time Memory Report at c_bands before calling an iterative solver
           123 MiB given to the printing process from OS
             0 MiB allocation reported by mallinfo(arena+hblkhd)
           584 MiB available memory on the node where the printing process lives
------------------
     ethr =  1.41E-08,  avg # of iterations =  3.0

     negative rho (up, down):  3.537E-01 0.000E+00

     total cpu time spent up to now is        2.1 secs

     total energy              =      -2.23918297 Ry
     estimated scf accuracy    <       0.00000022 Ry

     iteration #  9     ecut=    10.00 Ry     beta= 0.70
     Davidson diagonalization with overlap

---- Real-time Memory Report at c_bands before calling an iterative solver
           126 MiB given to the printing process from OS
             0 MiB allocation reported by mallinfo(arena+hblkhd)
           580 MiB available memory on the node where the printing process lives
------------------
     ethr =  1.09E-08,  avg # of iterations =  4.0

     negative rho (up, down):  3.537E-01 0.000E+00

     total cpu time spent up to now is        2.4 secs

     total energy              =      -2.23915601 Ry
     estimated scf accuracy    <       0.00000034 Ry

     iteration # 10     ecut=    10.00 Ry     beta= 0.70
     Davidson diagonalization with overlap

---- Real-time Memory Report at c_bands before calling an iterative solver
           130 MiB given to the printing process from OS
             0 MiB allocation reported by mallinfo(arena+hblkhd)
           577 MiB available memory on the node where the printing process lives
------------------
     ethr =  1.09E-08,  avg # of iterations =  4.0

     negative rho (up, down):  3.537E-01 0.000E+00

     total cpu time spent up to now is        2.6 secs

     total energy              =      -2.23916875 Ry
     estimated scf accuracy    <       0.00000030 Ry

     iteration # 11     ecut=    10.00 Ry     beta= 0.70
     Davidson diagonalization with overlap

---- Real-time Memory Report at c_bands before calling an iterative solver
           130 MiB given to the printing process from OS
             0 MiB allocation reported by mallinfo(arena+hblkhd)
           577 MiB available memory on the node where the printing process lives
------------------
     ethr =  1.09E-08,  avg # of iterations =  3.0

     negative rho (up, down):  3.537E-01 0.000E+00

     total cpu time spent up to now is        2.8 secs

     total energy              =      -2.23919449 Ry
     estimated scf accuracy    <       0.00000009 Ry

     iteration # 12     ecut=    10.00 Ry     beta= 0.70
     Davidson diagonalization with overlap

---- Real-time Memory Report at c_bands before calling an iterative solver
           130 MiB given to the printing process from OS
             0 MiB allocation reported by mallinfo(arena+hblkhd)
           577 MiB available memory on the node where the printing process lives
------------------
     ethr =  4.30E-09,  avg # of iterations =  3.0

     negative rho (up, down):  3.537E-01 0.000E+00

     total cpu time spent up to now is        3.0 secs

     total energy              =      -2.23915675 Ry
     estimated scf accuracy    <       0.00000012 Ry

     iteration # 13     ecut=    10.00 Ry     beta= 0.70
     Davidson diagonalization with overlap

---- Real-time Memory Report at c_bands before calling an iterative solver
           130 MiB given to the printing process from OS
             0 MiB allocation reported by mallinfo(arena+hblkhd)
           577 MiB available memory on the node where the printing process lives
------------------
     ethr =  4.30E-09,  avg # of iterations =  4.0

     negative rho (up, down):  3.537E-01 0.000E+00

     total cpu time spent up to now is        3.3 secs

     total energy              =      -2.23916140 Ry
     estimated scf accuracy    <       0.00000009 Ry

     iteration # 14     ecut=    10.00 Ry     beta= 0.70
     Davidson diagonalization with overlap

---- Real-time Memory Report at c_bands before calling an iterative solver
           130 MiB given to the printing process from OS
             0 MiB allocation reported by mallinfo(arena+hblkhd)
           577 MiB available memory on the node where the printing process lives
------------------
     ethr =  4.30E-09,  avg # of iterations =  2.0

     negative rho (up, down):  3.537E-01 0.000E+00

     total cpu time spent up to now is        3.5 secs

     total energy              =      -2.23918793 Ry
     estimated scf accuracy    <       0.00000013 Ry

     iteration # 15     ecut=    10.00 Ry     beta= 0.70
     Davidson diagonalization with overlap

---- Real-time Memory Report at c_bands before calling an iterative solver
           130 MiB given to the printing process from OS
             0 MiB allocation reported by mallinfo(arena+hblkhd)
           577 MiB available memory on the node where the printing process lives
------------------
     ethr =  4.30E-09,  avg # of iterations =  4.0

     negative rho (up, down):  3.537E-01 0.000E+00

     total cpu time spent up to now is        3.7 secs

     total energy              =      -2.23919389 Ry
     estimated scf accuracy    <       0.00000002 Ry

     iteration # 16     ecut=    10.00 Ry     beta= 0.70
     Davidson diagonalization with overlap

---- Real-time Memory Report at c_bands before calling an iterative solver
           130 MiB given to the printing process from OS
             0 MiB allocation reported by mallinfo(arena+hblkhd)
           577 MiB available memory on the node where the printing process lives
------------------
     ethr =  1.16E-09,  avg # of iterations =  2.0

     negative rho (up, down):  3.537E-01 0.000E+00

     total cpu time spent up to now is        3.9 secs

     total energy              =      -2.23919392 Ry
     estimated scf accuracy    <       0.00000003 Ry

     iteration # 17     ecut=    10.00 Ry     beta= 0.70
     Davidson diagonalization with overlap

---- Real-time Memory Report at c_bands before calling an iterative solver
           130 MiB given to the printing process from OS
             0 MiB allocation reported by mallinfo(arena+hblkhd)
           577 MiB available memory on the node where the printing process lives
------------------
     ethr =  1.16E-09,  avg # of iterations =  1.0

     negative rho (up, down):  3.537E-01 0.000E+00

     total cpu time spent up to now is        4.1 secs

     total energy              =      -2.23919393 Ry
     estimated scf accuracy    <       0.00000003 Ry

     iteration # 18     ecut=    10.00 Ry     beta= 0.70
     Davidson diagonalization with overlap

---- Real-time Memory Report at c_bands before calling an iterative solver
           130 MiB given to the printing process from OS
             0 MiB allocation reported by mallinfo(arena+hblkhd)
           577 MiB available memory on the node where the printing process lives
------------------
     ethr =  1.16E-09,  avg # of iterations =  1.0

     negative rho (up, down):  3.537E-01 0.000E+00

     total cpu time spent up to now is        4.4 secs

     total energy              =      -2.23915817 Ry
     estimated scf accuracy    <       0.00000003 Ry

     iteration # 19     ecut=    10.00 Ry     beta= 0.70
     Davidson diagonalization with overlap

---- Real-time Memory Report at c_bands before calling an iterative solver
           130 MiB given to the printing process from OS
             0 MiB allocation reported by mallinfo(arena+hblkhd)
           577 MiB available memory on the node where the printing process lives
------------------
     ethr =  1.16E-09,  avg # of iterations =  4.0

     negative rho (up, down):  3.537E-01 0.000E+00

     total cpu time spent up to now is        4.6 secs

     total energy              =      -2.23916276 Ry
     estimated scf accuracy    <       0.00000010 Ry

     iteration # 20     ecut=    10.00 Ry     beta= 0.70
     Davidson diagonalization with overlap

---- Real-time Memory Report at c_bands before calling an iterative solver
           130 MiB given to the printing process from OS
             0 MiB allocation reported by mallinfo(arena+hblkhd)
           577 MiB available memory on the node where the printing process lives
------------------
     ethr =  1.16E-09,  avg # of iterations =  2.0

     negative rho (up, down):  3.537E-01 0.000E+00

     total cpu time spent up to now is        4.8 secs

     total energy              =      -2.23916276 Ry
     estimated scf accuracy    <       0.00000009 Ry

     iteration # 21     ecut=    10.00 Ry     beta= 0.70
     Davidson diagonalization with overlap

---- Real-time Memory Report at c_bands before calling an iterative solver
           130 MiB given to the printing process from OS
             0 MiB allocation reported by mallinfo(arena+hblkhd)
           577 MiB available memory on the node where the printing process lives
------------------
     ethr =  1.16E-09,  avg # of iterations =  1.0

     negative rho (up, down):  3.537E-01 0.000E+00

     total cpu time spent up to now is        5.0 secs

     total energy              =      -2.23916292 Ry
     estimated scf accuracy    <       0.00000009 Ry

     iteration # 22     ecut=    10.00 Ry     beta= 0.70
     Davidson diagonalization with overlap

---- Real-time Memory Report at c_bands before calling an iterative solver
           130 MiB given to the printing process from OS
             0 MiB allocation reported by mallinfo(arena+hblkhd)
           577 MiB available memory on the node where the printing process lives
------------------
     ethr =  1.16E-09,  avg # of iterations =  1.0

     negative rho (up, down):  3.537E-01 0.000E+00

     total cpu time spent up to now is        5.2 secs

     total energy              =      -2.23918879 Ry
     estimated scf accuracy    <       0.00000009 Ry

     iteration # 23     ecut=    10.00 Ry     beta= 0.70
     Davidson diagonalization with overlap

---- Real-time Memory Report at c_bands before calling an iterative solver
           130 MiB given to the printing process from OS
             0 MiB allocation reported by mallinfo(arena+hblkhd)
           577 MiB available memory on the node where the printing process lives
------------------
     ethr =  1.16E-09,  avg # of iterations =  4.0

     negative rho (up, down):  3.537E-01 0.000E+00

     total cpu time spent up to now is        5.5 secs

     total energy              =      -2.23919371 Ry
     estimated scf accuracy    <       0.00000002 Ry

     iteration # 24     ecut=    10.00 Ry     beta= 0.70
     Davidson diagonalization with overlap

---- Real-time Memory Report at c_bands before calling an iterative solver
           130 MiB given to the printing process from OS
             0 MiB allocation reported by mallinfo(arena+hblkhd)
           577 MiB available memory on the node where the printing process lives
------------------
     ethr =  1.14E-09,  avg # of iterations =  1.0

     negative rho (up, down):  3.537E-01 0.000E+00

     total cpu time spent up to now is        5.7 secs

     total energy              =      -2.23915783 Ry
     estimated scf accuracy    <       0.00000002 Ry

     iteration # 25     ecut=    10.00 Ry     beta= 0.70
     Davidson diagonalization with overlap

---- Real-time Memory Report at c_bands before calling an iterative solver
           130 MiB given to the printing process from OS
             0 MiB allocation reported by mallinfo(arena+hblkhd)
           577 MiB available memory on the node where the printing process lives
------------------
     ethr =  1.14E-09,  avg # of iterations =  4.0

     negative rho (up, down):  3.537E-01 0.000E+00

     total cpu time spent up to now is        5.9 secs

     total energy              =      -2.23916262 Ry
     estimated scf accuracy    <       0.00000008 Ry

     iteration # 26     ecut=    10.00 Ry     beta= 0.70
     Davidson diagonalization with overlap

---- Real-time Memory Report at c_bands before calling an iterative solver
           130 MiB given to the printing process from OS
             0 MiB allocation reported by mallinfo(arena+hblkhd)
           577 MiB available memory on the node where the printing process lives
------------------
     ethr =  1.14E-09,  avg # of iterations =  1.0

     negative rho (up, down):  3.537E-01 0.000E+00

     total cpu time spent up to now is        6.1 secs

     total energy              =      -2.23916258 Ry
     estimated scf accuracy    <       0.00000008 Ry

     iteration # 27     ecut=    10.00 Ry     beta= 0.70
     Davidson diagonalization with overlap

---- Real-time Memory Report at c_bands before calling an iterative solver
           130 MiB given to the printing process from OS
             0 MiB allocation reported by mallinfo(arena+hblkhd)
           577 MiB available memory on the node where the printing process lives
------------------
     ethr =  1.14E-09,  avg # of iterations =  1.0

     negative rho (up, down):  3.537E-01 0.000E+00

     total cpu time spent up to now is        6.3 secs

     total energy              =      -2.23916254 Ry
     estimated scf accuracy    <       0.00000008 Ry

     iteration # 28     ecut=    10.00 Ry     beta= 0.70
     Davidson diagonalization with overlap

---- Real-time Memory Report at c_bands before calling an iterative solver
           130 MiB given to the printing process from OS
             0 MiB allocation reported by mallinfo(arena+hblkhd)
           577 MiB available memory on the node where the printing process lives
------------------
     ethr =  1.14E-09,  avg # of iterations =  1.0

     negative rho (up, down):  3.537E-01 0.000E+00

     total cpu time spent up to now is        6.5 secs

     total energy              =      -2.23916229 Ry
     estimated scf accuracy    <       0.00000009 Ry

     iteration # 29     ecut=    10.00 Ry     beta= 0.70
     Davidson diagonalization with overlap

---- Real-time Memory Report at c_bands before calling an iterative solver
           130 MiB given to the printing process from OS
             0 MiB allocation reported by mallinfo(arena+hblkhd)
           577 MiB available memory on the node where the printing process lives
------------------
     ethr =  1.14E-09,  avg # of iterations =  1.0

     negative rho (up, down):  3.537E-01 0.000E+00

     total cpu time spent up to now is        6.7 secs

     total energy              =      -2.23916235 Ry
     estimated scf accuracy    <       0.00000009 Ry

     iteration # 30     ecut=    10.00 Ry     beta= 0.70
     Davidson diagonalization with overlap

---- Real-time Memory Report at c_bands before calling an iterative solver
           130 MiB given to the printing process from OS
             0 MiB allocation reported by mallinfo(arena+hblkhd)
           577 MiB available memory on the node where the printing process lives
------------------
     ethr =  1.14E-09,  avg # of iterations =  1.0

     negative rho (up, down):  3.537E-01 0.000E+00

     total cpu time spent up to now is        7.0 secs

     total energy              =      -2.23916240 Ry
     estimated scf accuracy    <       0.00000009 Ry

     iteration # 31     ecut=    10.00 Ry     beta= 0.70
     Davidson diagonalization with overlap

---- Real-time Memory Report at c_bands before calling an iterative solver
           130 MiB given to the printing process from OS
             0 MiB allocation reported by mallinfo(arena+hblkhd)
           577 MiB available memory on the node where the printing process lives
------------------
     ethr =  1.14E-09,  avg # of iterations =  1.0

     negative rho (up, down):  3.537E-01 0.000E+00

     total cpu time spent up to now is        7.2 secs

     total energy              =      -2.23916246 Ry
     estimated scf accuracy    <       0.00000009 Ry

     iteration # 32     ecut=    10.00 Ry     beta= 0.70
     Davidson diagonalization with overlap

---- Real-time Memory Report at c_bands before calling an iterative solver
           130 MiB given to the printing process from OS
             0 MiB allocation reported by mallinfo(arena+hblkhd)
           577 MiB available memory on the node where the printing process lives
------------------
     ethr =  1.14E-09,  avg # of iterations =  1.0

     negative rho (up, down):  3.537E-01 0.000E+00

     total cpu time spent up to now is        7.4 secs

     total energy              =      -2.23918833 Ry
     estimated scf accuracy    <       0.00000009 Ry

     iteration # 33     ecut=    10.00 Ry     beta= 0.70
     Davidson diagonalization with overlap

---- Real-time Memory Report at c_bands before calling an iterative solver
           130 MiB given to the printing process from OS
             0 MiB allocation reported by mallinfo(arena+hblkhd)
           577 MiB available memory on the node where the printing process lives
------------------
     ethr =  1.14E-09,  avg # of iterations =  4.0

     negative rho (up, down):  3.537E-01 0.000E+00

     total cpu time spent up to now is        7.6 secs

     total energy              =      -2.23915760 Ry
     estimated scf accuracy    <       0.00000002 Ry

     iteration # 34     ecut=    10.00 Ry     beta= 0.70
     Davidson diagonalization with overlap

---- Real-time Memory Report at c_bands before calling an iterative solver
           130 MiB given to the printing process from OS
             0 MiB allocation reported by mallinfo(arena+hblkhd)
           577 MiB available memory on the node where the printing process lives
------------------
     ethr =  1.11E-09,  avg # of iterations =  4.0

     negative rho (up, down):  3.537E-01 0.000E+00

     total cpu time spent up to now is        7.8 secs

     total energy              =      -2.23916241 Ry
     estimated scf accuracy    <       0.00000009 Ry

     iteration # 35     ecut=    10.00 Ry     beta= 0.70
     Davidson diagonalization with overlap

---- Real-time Memory Report at c_bands before calling an iterative solver
           130 MiB given to the printing process from OS
             0 MiB allocation reported by mallinfo(arena+hblkhd)
           577 MiB available memory on the node where the printing process lives
------------------
     ethr =  1.11E-09,  avg # of iterations =  1.0

     negative rho (up, down):  3.537E-01 0.000E+00

     total cpu time spent up to now is        8.1 secs

     total energy              =      -2.23916239 Ry
     estimated scf accuracy    <       0.00000009 Ry

     iteration # 36     ecut=    10.00 Ry     beta= 0.70
     Davidson diagonalization with overlap

---- Real-time Memory Report at c_bands before calling an iterative solver
           130 MiB given to the printing process from OS
             0 MiB allocation reported by mallinfo(arena+hblkhd)
           577 MiB available memory on the node where the printing process lives
------------------
     ethr =  1.11E-09,  avg # of iterations =  1.0

     negative rho (up, down):  3.537E-01 0.000E+00

     total cpu time spent up to now is        8.3 secs

     total energy              =      -2.23916240 Ry
     estimated scf accuracy    <       0.00000009 Ry

     iteration # 37     ecut=    10.00 Ry     beta= 0.70
     Davidson diagonalization with overlap

---- Real-time Memory Report at c_bands before calling an iterative solver
           130 MiB given to the printing process from OS
             0 MiB allocation reported by mallinfo(arena+hblkhd)
           577 MiB available memory on the node where the printing process lives
------------------
     ethr =  1.11E-09,  avg # of iterations =  1.0

     negative rho (up, down):  3.537E-01 0.000E+00

     total cpu time spent up to now is        8.5 secs

     total energy              =      -2.23916237 Ry
     estimated scf accuracy    <       0.00000009 Ry

     iteration # 38     ecut=    10.00 Ry     beta= 0.70
     Davidson diagonalization with overlap

---- Real-time Memory Report at c_bands before calling an iterative solver
           130 MiB given to the printing process from OS
             0 MiB allocation reported by mallinfo(arena+hblkhd)
           577 MiB available memory on the node where the printing process lives
------------------
     ethr =  1.11E-09,  avg # of iterations =  1.0

     negative rho (up, down):  3.537E-01 0.000E+00

     total cpu time spent up to now is        8.7 secs

     total energy              =      -2.23916244 Ry
     estimated scf accuracy    <       0.00000009 Ry

     iteration # 39     ecut=    10.00 Ry     beta= 0.70
     Davidson diagonalization with overlap

---- Real-time Memory Report at c_bands before calling an iterative solver
           130 MiB given to the printing process from OS
             0 MiB allocation reported by mallinfo(arena+hblkhd)
           577 MiB available memory on the node where the printing process lives
------------------
     ethr =  1.11E-09,  avg # of iterations =  1.0

     negative rho (up, down):  3.537E-01 0.000E+00

     total cpu time spent up to now is        8.9 secs

     total energy              =      -2.23918841 Ry
     estimated scf accuracy    <       0.00000009 Ry

     iteration # 40     ecut=    10.00 Ry     beta= 0.70
     Davidson diagonalization with overlap

---- Real-time Memory Report at c_bands before calling an iterative solver
           130 MiB given to the printing process from OS
             0 MiB allocation reported by mallinfo(arena+hblkhd)
           577 MiB available memory on the node where the printing process lives
------------------
     ethr =  1.11E-09,  avg # of iterations =  4.0

     negative rho (up, down):  3.537E-01 0.000E+00

     total cpu time spent up to now is        9.1 secs

     total energy              =      -2.23919354 Ry
     estimated scf accuracy    <       0.00000002 Ry

     iteration # 41     ecut=    10.00 Ry     beta= 0.70
     Davidson diagonalization with overlap

---- Real-time Memory Report at c_bands before calling an iterative solver
           130 MiB given to the printing process from OS
             0 MiB allocation reported by mallinfo(arena+hblkhd)
           577 MiB available memory on the node where the printing process lives
------------------
     ethr =  1.11E-09,  avg # of iterations =  1.0

     negative rho (up, down):  3.537E-01 0.000E+00

     total cpu time spent up to now is        9.3 secs

     total energy              =      -2.23915751 Ry
     estimated scf accuracy    <       0.00000002 Ry

     iteration # 42     ecut=    10.00 Ry     beta= 0.70
     Davidson diagonalization with overlap

---- Real-time Memory Report at c_bands before calling an iterative solver
           130 MiB given to the printing process from OS
             0 MiB allocation reported by mallinfo(arena+hblkhd)
           577 MiB available memory on the node where the printing process lives
------------------
     ethr =  1.11E-09,  avg # of iterations =  4.0

     negative rho (up, down):  3.537E-01 0.000E+00

     total cpu time spent up to now is        9.6 secs

     total energy              =      -2.23918834 Ry
     estimated scf accuracy    <       0.00000009 Ry

     iteration # 43     ecut=    10.00 Ry     beta= 0.70
     Davidson diagonalization with overlap

---- Real-time Memory Report at c_bands before calling an iterative solver
           130 MiB given to the printing process from OS
             0 MiB allocation reported by mallinfo(arena+hblkhd)
           577 MiB available memory on the node where the printing process lives
------------------
     ethr =  1.11E-09,  avg # of iterations =  4.0

     negative rho (up, down):  3.537E-01 0.000E+00

     total cpu time spent up to now is        9.8 secs

     total energy              =      -2.23919353 Ry
     estimated scf accuracy    <       0.00000002 Ry

     iteration # 44     ecut=    10.00 Ry     beta= 0.70
     Davidson diagonalization with overlap

---- Real-time Memory Report at c_bands before calling an iterative solver
           130 MiB given to the printing process from OS
             0 MiB allocation reported by mallinfo(arena+hblkhd)
           577 MiB available memory on the node where the printing process lives
------------------
     ethr =  1.10E-09,  avg # of iterations =  1.0

     negative rho (up, down):  3.537E-01 0.000E+00

     total cpu time spent up to now is       10.0 secs

     total energy              =      -2.23919355 Ry
     estimated scf accuracy    <       0.00000002 Ry

     iteration # 45     ecut=    10.00 Ry     beta= 0.70
     Davidson diagonalization with overlap

---- Real-time Memory Report at c_bands before calling an iterative solver
           130 MiB given to the printing process from OS
             0 MiB allocation reported by mallinfo(arena+hblkhd)
           577 MiB available memory on the node where the printing process lives
------------------
     ethr =  1.10E-09,  avg # of iterations =  1.0

     negative rho (up, down):  3.537E-01 0.000E+00

     total cpu time spent up to now is       10.2 secs

     total energy              =      -2.23915754 Ry
     estimated scf accuracy    <       0.00000002 Ry

     iteration # 46     ecut=    10.00 Ry     beta= 0.70
     Davidson diagonalization with overlap

---- Real-time Memory Report at c_bands before calling an iterative solver
           130 MiB given to the printing process from OS
             0 MiB allocation reported by mallinfo(arena+hblkhd)
           577 MiB available memory on the node where the printing process lives
------------------
     ethr =  1.10E-09,  avg # of iterations =  4.0

     negative rho (up, down):  3.537E-01 0.000E+00

     total cpu time spent up to now is       10.5 secs

     total energy              =      -2.23916250 Ry
     estimated scf accuracy    <       0.00000009 Ry

     iteration # 47     ecut=    10.00 Ry     beta= 0.70
     Davidson diagonalization with overlap

---- Real-time Memory Report at c_bands before calling an iterative solver
           130 MiB given to the printing process from OS
             0 MiB allocation reported by mallinfo(arena+hblkhd)
           577 MiB available memory on the node where the printing process lives
------------------
     ethr =  1.10E-09,  avg # of iterations =  1.0

     negative rho (up, down):  3.537E-01 0.000E+00

     total cpu time spent up to now is       10.7 secs

     total energy              =      -2.23918837 Ry
     estimated scf accuracy    <       0.00000009 Ry

     iteration # 48     ecut=    10.00 Ry     beta= 0.70
     Davidson diagonalization with overlap

---- Real-time Memory Report at c_bands before calling an iterative solver
           130 MiB given to the printing process from OS
             0 MiB allocation reported by mallinfo(arena+hblkhd)
           577 MiB available memory on the node where the printing process lives
------------------
     ethr =  1.10E-09,  avg # of iterations =  4.0

     negative rho (up, down):  3.537E-01 0.000E+00

     total cpu time spent up to now is       10.9 secs

     total energy              =      -2.23915754 Ry
     estimated scf accuracy    <       0.00000002 Ry

     iteration # 49     ecut=    10.00 Ry     beta= 0.70
     Davidson diagonalization with overlap

---- Real-time Memory Report at c_bands before calling an iterative solver
           130 MiB given to the printing process from OS
             0 MiB allocation reported by mallinfo(arena+hblkhd)
           577 MiB available memory on the node where the printing process lives
------------------
     ethr =  1.07E-09,  avg # of iterations =  4.0

     negative rho (up, down):  3.537E-01 0.000E+00

     total cpu time spent up to now is       11.1 secs

     total energy              =      -2.23918847 Ry
     estimated scf accuracy    <       0.00000009 Ry

     iteration # 50     ecut=    10.00 Ry     beta= 0.70
     Davidson diagonalization with overlap

---- Real-time Memory Report at c_bands before calling an iterative solver
           130 MiB given to the printing process from OS
             0 MiB allocation reported by mallinfo(arena+hblkhd)
           577 MiB available memory on the node where the printing process lives
------------------
     ethr =  1.07E-09,  avg # of iterations =  4.0

     negative rho (up, down):  3.537E-01 0.000E+00

     total cpu time spent up to now is       11.4 secs

     total energy              =      -2.23919356 Ry
     estimated scf accuracy    <       0.00000002 Ry

     iteration # 51     ecut=    10.00 Ry     beta= 0.70
     Davidson diagonalization with overlap

---- Real-time Memory Report at c_bands before calling an iterative solver
           130 MiB given to the printing process from OS
             0 MiB allocation reported by mallinfo(arena+hblkhd)
           577 MiB available memory on the node where the printing process lives
------------------
     ethr =  1.07E-09,  avg # of iterations =  1.0

     negative rho (up, down):  3.537E-01 0.000E+00

     total cpu time spent up to now is       11.6 secs

     total energy              =      -2.23919354 Ry
     estimated scf accuracy    <       0.00000002 Ry

     iteration # 52     ecut=    10.00 Ry     beta= 0.70
     Davidson diagonalization with overlap

---- Real-time Memory Report at c_bands before calling an iterative solver
           130 MiB given to the printing process from OS
             0 MiB allocation reported by mallinfo(arena+hblkhd)
           577 MiB available memory on the node where the printing process lives
------------------
     ethr =  1.07E-09,  avg # of iterations =  1.0

     negative rho (up, down):  3.537E-01 0.000E+00

     total cpu time spent up to now is       11.8 secs

     total energy              =      -2.23915752 Ry
     estimated scf accuracy    <       0.00000002 Ry

     iteration # 53     ecut=    10.00 Ry     beta= 0.70
     Davidson diagonalization with overlap

---- Real-time Memory Report at c_bands before calling an iterative solver
           130 MiB given to the printing process from OS
             0 MiB allocation reported by mallinfo(arena+hblkhd)
           577 MiB available memory on the node where the printing process lives
------------------
     ethr =  1.07E-09,  avg # of iterations =  4.0

     negative rho (up, down):  3.537E-01 0.000E+00

     total cpu time spent up to now is       12.0 secs

     total energy              =      -2.23918859 Ry
     estimated scf accuracy    <       0.00000009 Ry

     iteration # 54     ecut=    10.00 Ry     beta= 0.70
     Davidson diagonalization with overlap

---- Real-time Memory Report at c_bands before calling an iterative solver
           130 MiB given to the printing process from OS
             0 MiB allocation reported by mallinfo(arena+hblkhd)
           577 MiB available memory on the node where the printing process lives
------------------
     ethr =  1.07E-09,  avg # of iterations =  4.0

     negative rho (up, down):  3.537E-01 0.000E+00

     total cpu time spent up to now is       12.3 secs

     total energy              =      -2.23915755 Ry
     estimated scf accuracy    <       0.00000002 Ry

     iteration # 55     ecut=    10.00 Ry     beta= 0.70
     Davidson diagonalization with overlap

---- Real-time Memory Report at c_bands before calling an iterative solver
           130 MiB given to the printing process from OS
             0 MiB allocation reported by mallinfo(arena+hblkhd)
           577 MiB available memory on the node where the printing process lives
------------------
     ethr =  1.07E-09,  avg # of iterations =  4.0

     negative rho (up, down):  3.537E-01 0.000E+00

     total cpu time spent up to now is       12.5 secs

     total energy              =      -2.23916250 Ry
     estimated scf accuracy    <       0.00000009 Ry

     iteration # 56     ecut=    10.00 Ry     beta= 0.70
     Davidson diagonalization with overlap

---- Real-time Memory Report at c_bands before calling an iterative solver
           130 MiB given to the printing process from OS
             0 MiB allocation reported by mallinfo(arena+hblkhd)
           577 MiB available memory on the node where the printing process lives
------------------
     ethr =  1.07E-09,  avg # of iterations =  1.0

     negative rho (up, down):  3.537E-01 0.000E+00

     total cpu time spent up to now is       12.7 secs

     total energy              =      -2.23918838 Ry
     estimated scf accuracy    <       0.00000009 Ry

     iteration # 57     ecut=    10.00 Ry     beta= 0.70
     Davidson diagonalization with overlap

---- Real-time Memory Report at c_bands before calling an iterative solver
           130 MiB given to the printing process from OS
             0 MiB allocation reported by mallinfo(arena+hblkhd)
           577 MiB available memory on the node where the printing process lives
------------------
     ethr =  1.07E-09,  avg # of iterations =  4.0

     negative rho (up, down):  3.537E-01 0.000E+00

     total cpu time spent up to now is       12.9 secs

     total energy              =      -2.23915757 Ry
     estimated scf accuracy    <       0.00000002 Ry

     iteration # 58     ecut=    10.00 Ry     beta= 0.70
     Davidson diagonalization with overlap

---- Real-time Memory Report at c_bands before calling an iterative solver
           130 MiB given to the printing process from OS
             0 MiB allocation reported by mallinfo(arena+hblkhd)
           577 MiB available memory on the node where the printing process lives
------------------
     ethr =  1.07E-09,  avg # of iterations =  4.0

     negative rho (up, down):  3.537E-01 0.000E+00

     total cpu time spent up to now is       13.2 secs

     total energy              =      -2.23916251 Ry
     estimated scf accuracy    <       0.00000009 Ry

     iteration # 59     ecut=    10.00 Ry     beta= 0.70
     Davidson diagonalization with overlap

---- Real-time Memory Report at c_bands before calling an iterative solver
           130 MiB given to the printing process from OS
             0 MiB allocation reported by mallinfo(arena+hblkhd)
           577 MiB available memory on the node where the printing process lives
------------------
     ethr =  1.07E-09,  avg # of iterations =  1.0

     negative rho (up, down):  3.537E-01 0.000E+00

     total cpu time spent up to now is       13.4 secs

     total energy              =      -2.23916253 Ry
     estimated scf accuracy    <       0.00000009 Ry

     iteration # 60     ecut=    10.00 Ry     beta= 0.70
     Davidson diagonalization with overlap

---- Real-time Memory Report at c_bands before calling an iterative solver
           130 MiB given to the printing process from OS
             0 MiB allocation reported by mallinfo(arena+hblkhd)
           577 MiB available memory on the node where the printing process lives
------------------
     ethr =  1.07E-09,  avg # of iterations =  1.0

     negative rho (up, down):  3.537E-01 0.000E+00

     total cpu time spent up to now is       13.6 secs

     total energy              =      -2.23916233 Ry
     estimated scf accuracy    <       0.00000009 Ry

     iteration # 61     ecut=    10.00 Ry     beta= 0.70
     Davidson diagonalization with overlap

---- Real-time Memory Report at c_bands before calling an iterative solver
           130 MiB given to the printing process from OS
             0 MiB allocation reported by mallinfo(arena+hblkhd)
           577 MiB available memory on the node where the printing process lives
------------------
     ethr =  1.07E-09,  avg # of iterations =  1.0

     negative rho (up, down):  3.537E-01 0.000E+00

     total cpu time spent up to now is       13.8 secs

     total energy              =      -2.23916240 Ry
     estimated scf accuracy    <       0.00000009 Ry

     iteration # 62     ecut=    10.00 Ry     beta= 0.70
     Davidson diagonalization with overlap

---- Real-time Memory Report at c_bands before calling an iterative solver
           130 MiB given to the printing process from OS
             0 MiB allocation reported by mallinfo(arena+hblkhd)
           577 MiB available memory on the node where the printing process lives
------------------
     ethr =  1.07E-09,  avg # of iterations =  1.0

     negative rho (up, down):  3.537E-01 0.000E+00

     total cpu time spent up to now is       14.0 secs

     total energy              =      -2.23916232 Ry
     estimated scf accuracy    <       0.00000009 Ry

     iteration # 63     ecut=    10.00 Ry     beta= 0.70
     Davidson diagonalization with overlap

---- Real-time Memory Report at c_bands before calling an iterative solver
           130 MiB given to the printing process from OS
             0 MiB allocation reported by mallinfo(arena+hblkhd)
           577 MiB available memory on the node where the printing process lives
------------------
     ethr =  1.07E-09,  avg # of iterations =  1.0

     negative rho (up, down):  3.537E-01 0.000E+00

     total cpu time spent up to now is       14.2 secs

     total energy              =      -2.23916248 Ry
     estimated scf accuracy    <       0.00000009 Ry

     iteration # 64     ecut=    10.00 Ry     beta= 0.70
     Davidson diagonalization with overlap

---- Real-time Memory Report at c_bands before calling an iterative solver
           130 MiB given to the printing process from OS
             0 MiB allocation reported by mallinfo(arena+hblkhd)
           577 MiB available memory on the node where the printing process lives
------------------
     ethr =  1.07E-09,  avg # of iterations =  1.0

     negative rho (up, down):  3.537E-01 0.000E+00

     total cpu time spent up to now is       14.4 secs

     total energy              =      -2.23916241 Ry
     estimated scf accuracy    <       0.00000009 Ry

     iteration # 65     ecut=    10.00 Ry     beta= 0.70
     Davidson diagonalization with overlap

---- Real-time Memory Report at c_bands before calling an iterative solver
           130 MiB given to the printing process from OS
             0 MiB allocation reported by mallinfo(arena+hblkhd)
           577 MiB available memory on the node where the printing process lives
------------------
     ethr =  1.07E-09,  avg # of iterations =  1.0

     negative rho (up, down):  3.537E-01 0.000E+00

     total cpu time spent up to now is       14.7 secs

     total energy              =      -2.23916243 Ry
     estimated scf accuracy    <       0.00000009 Ry

     iteration # 66     ecut=    10.00 Ry     beta= 0.70
     Davidson diagonalization with overlap

---- Real-time Memory Report at c_bands before calling an iterative solver
           130 MiB given to the printing process from OS
             0 MiB allocation reported by mallinfo(arena+hblkhd)
           577 MiB available memory on the node where the printing process lives
------------------
     ethr =  1.07E-09,  avg # of iterations =  1.0

     negative rho (up, down):  3.537E-01 0.000E+00

     total cpu time spent up to now is       14.9 secs

     total energy              =      -2.23915282 Ry
     estimated scf accuracy    <       0.00000009 Ry

     iteration # 67     ecut=    10.00 Ry     beta= 0.70
     Davidson diagonalization with overlap

---- Real-time Memory Report at c_bands before calling an iterative solver
           130 MiB given to the printing process from OS
             0 MiB allocation reported by mallinfo(arena+hblkhd)
           577 MiB available memory on the node where the printing process lives
------------------
     ethr =  1.07E-09,  avg # of iterations =  3.0

     negative rho (up, down):  3.538E-01 0.000E+00

     total cpu time spent up to now is       15.1 secs

     total energy              =      -2.23915033 Ry
     estimated scf accuracy    <       0.00000009 Ry

     iteration # 68     ecut=    10.00 Ry     beta= 0.70
     Davidson diagonalization with overlap

---- Real-time Memory Report at c_bands before calling an iterative solver
           130 MiB given to the printing process from OS
             0 MiB allocation reported by mallinfo(arena+hblkhd)
           577 MiB available memory on the node where the printing process lives
------------------
     ethr =  1.07E-09,  avg # of iterations =  3.0

     negative rho (up, down):  3.537E-01 0.000E+00

     total cpu time spent up to now is       15.3 secs

     total energy              =      -2.23919411 Ry
     estimated scf accuracy    <       0.00000015 Ry

     iteration # 69     ecut=    10.00 Ry     beta= 0.70
     Davidson diagonalization with overlap

---- Real-time Memory Report at c_bands before calling an iterative solver
           130 MiB given to the printing process from OS
             0 MiB allocation reported by mallinfo(arena+hblkhd)
           577 MiB available memory on the node where the printing process lives
------------------
     ethr =  1.07E-09,  avg # of iterations =  4.0

     negative rho (up, down):  3.537E-01 0.000E+00

     total cpu time spent up to now is       15.6 secs

     total energy              =      -2.23919310 Ry
     estimated scf accuracy    <       0.00000004 Ry

     iteration # 70     ecut=    10.00 Ry     beta= 0.70
     Davidson diagonalization with overlap

---- Real-time Memory Report at c_bands before calling an iterative solver
           130 MiB given to the printing process from OS
             0 MiB allocation reported by mallinfo(arena+hblkhd)
           577 MiB available memory on the node where the printing process lives
------------------
     ethr =  1.07E-09,  avg # of iterations =  2.0

     negative rho (up, down):  3.537E-01 0.000E+00

     total cpu time spent up to now is       15.8 secs

     total energy              =      -2.23915772 Ry
     estimated scf accuracy    <       0.00000002 Ry

     iteration # 71     ecut=    10.00 Ry     beta= 0.70
     Davidson diagonalization with overlap

---- Real-time Memory Report at c_bands before calling an iterative solver
           130 MiB given to the printing process from OS
             0 MiB allocation reported by mallinfo(arena+hblkhd)
           577 MiB available memory on the node where the printing process lives
------------------
     ethr =  1.06E-09,  avg # of iterations =  4.0

     negative rho (up, down):  3.537E-01 0.000E+00

     total cpu time spent up to now is       16.0 secs

     total energy              =      -2.23916177 Ry
     estimated scf accuracy    <       0.00000007 Ry

     iteration # 72     ecut=    10.00 Ry     beta= 0.70
     Davidson diagonalization with overlap

---- Real-time Memory Report at c_bands before calling an iterative solver
           130 MiB given to the printing process from OS
             0 MiB allocation reported by mallinfo(arena+hblkhd)
           577 MiB available memory on the node where the printing process lives
------------------
     ethr =  1.06E-09,  avg # of iterations =  2.0

     negative rho (up, down):  3.537E-01 0.000E+00

     total cpu time spent up to now is       16.2 secs

     total energy              =      -2.23919060 Ry
     estimated scf accuracy    <       0.00000007 Ry

     iteration # 73     ecut=    10.00 Ry     beta= 0.70
     Davidson diagonalization with overlap

---- Real-time Memory Report at c_bands before calling an iterative solver
           130 MiB given to the printing process from OS
             0 MiB allocation reported by mallinfo(arena+hblkhd)
           577 MiB available memory on the node where the printing process lives
------------------
     ethr =  1.06E-09,  avg # of iterations =  4.0

     negative rho (up, down):  3.537E-01 0.000E+00

     total cpu time spent up to now is       16.5 secs

     total energy              =      -2.23919399 Ry
     estimated scf accuracy    <       0.00000004 Ry

     iteration # 74     ecut=    10.00 Ry     beta= 0.70
     Davidson diagonalization with overlap

---- Real-time Memory Report at c_bands before calling an iterative solver
           130 MiB given to the printing process from OS
             0 MiB allocation reported by mallinfo(arena+hblkhd)
           577 MiB available memory on the node where the printing process lives
------------------
     ethr =  1.06E-09,  avg # of iterations =  1.0

     negative rho (up, down):  3.537E-01 0.000E+00

     total cpu time spent up to now is       16.7 secs

     total energy              =      -2.23919365 Ry
     estimated scf accuracy    <       0.00000003 Ry

     iteration # 75     ecut=    10.00 Ry     beta= 0.70
     Davidson diagonalization with overlap

---- Real-time Memory Report at c_bands before calling an iterative solver
           130 MiB given to the printing process from OS
             0 MiB allocation reported by mallinfo(arena+hblkhd)
           577 MiB available memory on the node where the printing process lives
------------------
     ethr =  1.06E-09,  avg # of iterations =  2.0

     negative rho (up, down):  3.537E-01 0.000E+00

     total cpu time spent up to now is       16.9 secs

     total energy              =      -2.23915756 Ry
     estimated scf accuracy    <       0.00000002 Ry

     iteration # 76     ecut=    10.00 Ry     beta= 0.70
     Davidson diagonalization with overlap

---- Real-time Memory Report at c_bands before calling an iterative solver
           130 MiB given to the printing process from OS
             0 MiB allocation reported by mallinfo(arena+hblkhd)
           577 MiB available memory on the node where the printing process lives
------------------
     ethr =  1.06E-09,  avg # of iterations =  4.0

     negative rho (up, down):  3.537E-01 0.000E+00

     total cpu time spent up to now is       17.1 secs

     total energy              =      -2.23916231 Ry
     estimated scf accuracy    <       0.00000009 Ry

     iteration # 77     ecut=    10.00 Ry     beta= 0.70
     Davidson diagonalization with overlap

---- Real-time Memory Report at c_bands before calling an iterative solver
           130 MiB given to the printing process from OS
             0 MiB allocation reported by mallinfo(arena+hblkhd)
           577 MiB available memory on the node where the printing process lives
------------------
     ethr =  1.06E-09,  avg # of iterations =  1.0

     negative rho (up, down):  3.537E-01 0.000E+00

     total cpu time spent up to now is       17.3 secs

     total energy              =      -2.23916234 Ry
     estimated scf accuracy    <       0.00000009 Ry

     iteration # 78     ecut=    10.00 Ry     beta= 0.70
     Davidson diagonalization with overlap

---- Real-time Memory Report at c_bands before calling an iterative solver
           130 MiB given to the printing process from OS
             0 MiB allocation reported by mallinfo(arena+hblkhd)
           577 MiB available memory on the node where the printing process lives
------------------
     ethr =  1.06E-09,  avg # of iterations =  1.0

     negative rho (up, down):  3.537E-01 0.000E+00

     total cpu time spent up to now is       17.5 secs

     total energy              =      -2.23916246 Ry
     estimated scf accuracy    <       0.00000009 Ry

     iteration # 79     ecut=    10.00 Ry     beta= 0.70
     Davidson diagonalization with overlap

---- Real-time Memory Report at c_bands before calling an iterative solver
           130 MiB given to the printing process from OS
             0 MiB allocation reported by mallinfo(arena+hblkhd)
           577 MiB available memory on the node where the printing process lives
------------------
     ethr =  1.06E-09,  avg # of iterations =  1.0

     negative rho (up, down):  3.537E-01 0.000E+00

     total cpu time spent up to now is       17.7 secs

     total energy              =      -2.23916253 Ry
     estimated scf accuracy    <       0.00000009 Ry

     iteration # 80     ecut=    10.00 Ry     beta= 0.70
     Davidson diagonalization with overlap

---- Real-time Memory Report at c_bands before calling an iterative solver
           130 MiB given to the printing process from OS
             0 MiB allocation reported by mallinfo(arena+hblkhd)
           577 MiB available memory on the node where the printing process lives
------------------
     ethr =  1.06E-09,  avg # of iterations =  1.0

     negative rho (up, down):  3.537E-01 0.000E+00

     total cpu time spent up to now is       18.0 secs

     total energy              =      -2.23916216 Ry
     estimated scf accuracy    <       0.00000009 Ry

     iteration # 81     ecut=    10.00 Ry     beta= 0.70
     Davidson diagonalization with overlap

---- Real-time Memory Report at c_bands before calling an iterative solver
           130 MiB given to the printing process from OS
             0 MiB allocation reported by mallinfo(arena+hblkhd)
           577 MiB available memory on the node where the printing process lives
------------------
     ethr =  1.06E-09,  avg # of iterations =  2.0

     negative rho (up, down):  3.537E-01 0.000E+00

     total cpu time spent up to now is       18.2 secs

     total energy              =      -2.23916238 Ry
     estimated scf accuracy    <       0.00000008 Ry

     iteration # 82     ecut=    10.00 Ry     beta= 0.70
     Davidson diagonalization with overlap

---- Real-time Memory Report at c_bands before calling an iterative solver
           130 MiB given to the printing process from OS
             0 MiB allocation reported by mallinfo(arena+hblkhd)
           577 MiB available memory on the node where the printing process lives
------------------
     ethr =  1.06E-09,  avg # of iterations =  1.0

     negative rho (up, down):  3.537E-01 0.000E+00

     total cpu time spent up to now is       18.4 secs

     total energy              =      -2.23916262 Ry
     estimated scf accuracy    <       0.00000008 Ry

     iteration # 83     ecut=    10.00 Ry     beta= 0.70
     Davidson diagonalization with overlap

---- Real-time Memory Report at c_bands before calling an iterative solver
           130 MiB given to the printing process from OS
             0 MiB allocation reported by mallinfo(arena+hblkhd)
           577 MiB available memory on the node where the printing process lives
------------------
     ethr =  1.06E-09,  avg # of iterations =  1.0

     negative rho (up, down):  3.537E-01 0.000E+00

     total cpu time spent up to now is       18.6 secs

     total energy              =      -2.23916232 Ry
     estimated scf accuracy    <       0.00000008 Ry

     iteration # 84     ecut=    10.00 Ry     beta= 0.70
     Davidson diagonalization with overlap

---- Real-time Memory Report at c_bands before calling an iterative solver
           130 MiB given to the printing process from OS
             0 MiB allocation reported by mallinfo(arena+hblkhd)
           577 MiB available memory on the node where the printing process lives
------------------
     ethr =  1.06E-09,  avg # of iterations =  2.0

     negative rho (up, down):  3.538E-01 0.000E+00

     total cpu time spent up to now is       18.8 secs

     total energy              =      -2.23914610 Ry
     estimated scf accuracy    <       0.00000008 Ry

     iteration # 85     ecut=    10.00 Ry     beta= 0.70
     Davidson diagonalization with overlap

---- Real-time Memory Report at c_bands before calling an iterative solver
           130 MiB given to the printing process from OS
             0 MiB allocation reported by mallinfo(arena+hblkhd)
           577 MiB available memory on the node where the printing process lives
------------------
     ethr =  1.06E-09,  avg # of iterations =  3.0

     negative rho (up, down):  3.537E-01 0.000E+00

     total cpu time spent up to now is       19.0 secs

     total energy              =      -2.23919686 Ry
     estimated scf accuracy    <       0.00000013 Ry

     iteration # 86     ecut=    10.00 Ry     beta= 0.70
     Davidson diagonalization with overlap

---- Real-time Memory Report at c_bands before calling an iterative solver
           130 MiB given to the printing process from OS
             0 MiB allocation reported by mallinfo(arena+hblkhd)
           577 MiB available memory on the node where the printing process lives
------------------
     ethr =  1.06E-09,  avg # of iterations =  4.0

     negative rho (up, down):  3.537E-01 0.000E+00

     total cpu time spent up to now is       19.3 secs

     total energy              =      -2.23919609 Ry
     estimated scf accuracy    <       0.00000009 Ry

     iteration # 87     ecut=    10.00 Ry     beta= 0.70
     Davidson diagonalization with overlap

---- Real-time Memory Report at c_bands before calling an iterative solver
           130 MiB given to the printing process from OS
             0 MiB allocation reported by mallinfo(arena+hblkhd)
           577 MiB available memory on the node where the printing process lives
------------------
     ethr =  1.06E-09,  avg # of iterations =  2.0

     negative rho (up, down):  3.537E-01 0.000E+00

     total cpu time spent up to now is       19.5 secs

     total energy              =      -2.23915822 Ry
     estimated scf accuracy    <       0.00000005 Ry

     iteration # 88     ecut=    10.00 Ry     beta= 0.70
     Davidson diagonalization with overlap

---- Real-time Memory Report at c_bands before calling an iterative solver
           130 MiB given to the printing process from OS
             0 MiB allocation reported by mallinfo(arena+hblkhd)
           577 MiB available memory on the node where the printing process lives
------------------
     ethr =  1.06E-09,  avg # of iterations =  4.0

     negative rho (up, down):  3.537E-01 0.000E+00

     total cpu time spent up to now is       19.7 secs

     total energy              =      -2.23918914 Ry
     estimated scf accuracy    <       0.00000008 Ry

     iteration # 89     ecut=    10.00 Ry     beta= 0.70
     Davidson diagonalization with overlap

---- Real-time Memory Report at c_bands before calling an iterative solver
           130 MiB given to the printing process from OS
             0 MiB allocation reported by mallinfo(arena+hblkhd)
           577 MiB available memory on the node where the printing process lives
------------------
     ethr =  1.06E-09,  avg # of iterations =  4.0

     negative rho (up, down):  3.537E-01 0.000E+00

     total cpu time spent up to now is       19.9 secs

     total energy              =      -2.23915787 Ry
     estimated scf accuracy    <       0.00000003 Ry

     iteration # 90     ecut=    10.00 Ry     beta= 0.70
     Davidson diagonalization with overlap

---- Real-time Memory Report at c_bands before calling an iterative solver
           130 MiB given to the printing process from OS
             0 MiB allocation reported by mallinfo(arena+hblkhd)
           577 MiB available memory on the node where the printing process lives
------------------
     ethr =  1.06E-09,  avg # of iterations =  4.0

     negative rho (up, down):  3.537E-01 0.000E+00

     total cpu time spent up to now is       20.2 secs

     total energy              =      -2.23916272 Ry
     estimated scf accuracy    <       0.00000008 Ry

     iteration # 91     ecut=    10.00 Ry     beta= 0.70
     Davidson diagonalization with overlap

---- Real-time Memory Report at c_bands before calling an iterative solver
           130 MiB given to the printing process from OS
             0 MiB allocation reported by mallinfo(arena+hblkhd)
           577 MiB available memory on the node where the printing process lives
------------------
     ethr =  1.06E-09,  avg # of iterations =  1.0

     negative rho (up, down):  3.537E-01 0.000E+00

     total cpu time spent up to now is       20.4 secs

     total energy              =      -2.23918875 Ry
     estimated scf accuracy    <       0.00000008 Ry

     iteration # 92     ecut=    10.00 Ry     beta= 0.70
     Davidson diagonalization with overlap

---- Real-time Memory Report at c_bands before calling an iterative solver
           130 MiB given to the printing process from OS
             0 MiB allocation reported by mallinfo(arena+hblkhd)
           577 MiB available memory on the node where the printing process lives
------------------
     ethr =  1.06E-09,  avg # of iterations =  4.0

     negative rho (up, down):  3.537E-01 0.000E+00

     total cpu time spent up to now is       20.6 secs

     total energy              =      -2.23919371 Ry
     estimated scf accuracy    <       0.00000002 Ry

     iteration # 93     ecut=    10.00 Ry     beta= 0.70
     Davidson diagonalization with overlap

---- Real-time Memory Report at c_bands before calling an iterative solver
           130 MiB given to the printing process from OS
             0 MiB allocation reported by mallinfo(arena+hblkhd)
           577 MiB available memory on the node where the printing process lives
------------------
     ethr =  1.06E-09,  avg # of iterations =  1.0

     negative rho (up, down):  3.537E-01 0.000E+00

     total cpu time spent up to now is       20.8 secs

     total energy              =      -2.23919382 Ry
     estimated scf accuracy    <       0.00000002 Ry

     iteration # 94     ecut=    10.00 Ry     beta= 0.70
     Davidson diagonalization with overlap

---- Real-time Memory Report at c_bands before calling an iterative solver
           130 MiB given to the printing process from OS
             0 MiB allocation reported by mallinfo(arena+hblkhd)
           577 MiB available memory on the node where the printing process lives
------------------
     ethr =  1.06E-09,  avg # of iterations =  1.0

     negative rho (up, down):  3.537E-01 0.000E+00

     total cpu time spent up to now is       21.1 secs

     total energy              =      -2.23919377 Ry
     estimated scf accuracy    <       0.00000003 Ry

     iteration # 95     ecut=    10.00 Ry     beta= 0.70
     Davidson diagonalization with overlap

---- Real-time Memory Report at c_bands before calling an iterative solver
           130 MiB given to the printing process from OS
             0 MiB allocation reported by mallinfo(arena+hblkhd)
           577 MiB available memory on the node where the printing process lives
------------------
     ethr =  1.06E-09,  avg # of iterations =  1.0

     negative rho (up, down):  3.537E-01 0.000E+00

     total cpu time spent up to now is       21.3 secs

     total energy              =      -2.23919381 Ry
     estimated scf accuracy    <       0.00000002 Ry

     iteration # 96     ecut=    10.00 Ry     beta= 0.70
     Davidson diagonalization with overlap

---- Real-time Memory Report at c_bands before calling an iterative solver
           130 MiB given to the printing process from OS
             0 MiB allocation reported by mallinfo(arena+hblkhd)
           577 MiB available memory on the node where the printing process lives
------------------
     ethr =  1.06E-09,  avg # of iterations =  1.0

     negative rho (up, down):  3.537E-01 0.000E+00

     total cpu time spent up to now is       21.5 secs

     total energy              =      -2.23919378 Ry
     estimated scf accuracy    <       0.00000003 Ry

     iteration # 97     ecut=    10.00 Ry     beta= 0.70
     Davidson diagonalization with overlap

---- Real-time Memory Report at c_bands before calling an iterative solver
           130 MiB given to the printing process from OS
             0 MiB allocation reported by mallinfo(arena+hblkhd)
           577 MiB available memory on the node where the printing process lives
------------------
     ethr =  1.06E-09,  avg # of iterations =  1.0

     negative rho (up, down):  3.537E-01 0.000E+00

     total cpu time spent up to now is       21.7 secs

     total energy              =      -2.23915769 Ry
     estimated scf accuracy    <       0.00000003 Ry

     iteration # 98     ecut=    10.00 Ry     beta= 0.70
     Davidson diagonalization with overlap

---- Real-time Memory Report at c_bands before calling an iterative solver
           130 MiB given to the printing process from OS
             0 MiB allocation reported by mallinfo(arena+hblkhd)
           577 MiB available memory on the node where the printing process lives
------------------
     ethr =  1.06E-09,  avg # of iterations =  4.0

     negative rho (up, down):  3.537E-01 0.000E+00

     total cpu time spent up to now is       21.9 secs

     total energy              =      -2.23916264 Ry
     estimated scf accuracy    <       0.00000009 Ry

     iteration # 99     ecut=    10.00 Ry     beta= 0.70
     Davidson diagonalization with overlap

---- Real-time Memory Report at c_bands before calling an iterative solver
           130 MiB given to the printing process from OS
             0 MiB allocation reported by mallinfo(arena+hblkhd)
           577 MiB available memory on the node where the printing process lives
------------------
     ethr =  1.06E-09,  avg # of iterations =  1.0

     negative rho (up, down):  3.537E-01 0.000E+00

     total cpu time spent up to now is       22.2 secs

     total energy              =      -2.23918858 Ry
     estimated scf accuracy    <       0.00000009 Ry

     iteration #100     ecut=    10.00 Ry     beta= 0.70
     Davidson diagonalization with overlap

---- Real-time Memory Report at c_bands before calling an iterative solver
           130 MiB given to the printing process from OS
             0 MiB allocation reported by mallinfo(arena+hblkhd)
           577 MiB available memory on the node where the printing process lives
------------------
     ethr =  1.06E-09,  avg # of iterations =  4.0

     negative rho (up, down):  3.537E-01 0.000E+00

     total cpu time spent up to now is       22.4 secs

     total energy              =      -2.23919363 Ry
     estimated scf accuracy    <       0.00000002 Ry

     End of self-consistent calculation

     convergence NOT achieved after 100 iterations: stopping

     Writing config to output data dir ./.save/
     Message from routine punch:
     wavefunctions written to file

     init_run     :      0.21s CPU      0.23s WALL (       1 calls)
     electrons    :     22.11s CPU     22.17s WALL (       1 calls)

     Called by init_run:
     wfcinit      :      0.02s CPU      0.02s WALL (       1 calls)
     wfcinit:atom :      0.00s CPU      0.00s WALL (       1 calls)
     wfcinit:wfcr :      0.01s CPU      0.01s WALL (       1 calls)
     potinit      :      0.13s CPU      0.14s WALL (       1 calls)
     hinit0       :      0.01s CPU      0.01s WALL (       1 calls)

     Called by electrons:
     c_bands      :      3.80s CPU      3.81s WALL (     100 calls)
     sum_band     :      2.52s CPU      2.52s WALL (     100 calls)
     v_of_rho     :     12.16s CPU     12.19s WALL (     101 calls)
     v_h          :      0.68s CPU      0.68s WALL (     101 calls)
     v_xc         :     11.48s CPU     11.52s WALL (     101 calls)
     newd         :      0.84s CPU      0.84s WALL (     101 calls)
     mix_rho      :      2.67s CPU      2.68s WALL (     100 calls)

     Called by c_bands:
     init_us_2    :      0.08s CPU      0.08s WALL (     201 calls)
     init_us_2:cp :      0.08s CPU      0.08s WALL (     201 calls)
     cegterg      :      3.75s CPU      3.75s WALL (     100 calls)

     Called by sum_band:
     sum_band:wei :      0.00s CPU      0.00s WALL (     100 calls)
     sum_band:loo :      0.69s CPU      0.69s WALL (     100 calls)
     sum_band:buf :      0.00s CPU      0.00s WALL (     100 calls)
     sum_band:ini :      0.04s CPU      0.04s WALL (     100 calls)
     sum_band:cal :      0.01s CPU      0.01s WALL (     100 calls)
     sum_band:bec :      0.00s CPU      0.00s WALL (     100 calls)
     addusdens    :      0.23s CPU      0.23s WALL (     100 calls)
     addusd:skk   :      0.07s CPU      0.07s WALL (     100 calls)
     addusd:dgemm :      0.05s CPU      0.05s WALL (     100 calls)
     addusd:qvan2 :      0.06s CPU      0.06s WALL (     100 calls)

     Called by *egterg:
     cdiaghg      :      0.01s CPU      0.01s WALL (     342 calls)
     cegterg:over :      0.05s CPU      0.05s WALL (     242 calls)
     cegterg:upda :      0.04s CPU      0.04s WALL (     242 calls)
     cegterg:last :      0.06s CPU      0.06s WALL (     198 calls)
     h_psi        :      3.52s CPU      3.52s WALL (     343 calls)
     s_psi        :      0.02s CPU      0.02s WALL (     343 calls)
     g_psi        :      0.02s CPU      0.02s WALL (     242 calls)

     Called by h_psi:
     h_psi:calbec :      0.03s CPU      0.03s WALL (     343 calls)
     vloc_psi     :      3.45s CPU      3.46s WALL (     343 calls)
     add_vuspsi   :      0.02s CPU      0.02s WALL (     343 calls)

     General routines
     calbec       :      0.04s CPU      0.04s WALL (     443 calls)
     fft          :      5.63s CPU      5.64s WALL (    1111 calls)
     ffts         :      0.53s CPU      0.53s WALL (     100 calls)
     fftw         :      3.68s CPU      3.69s WALL (    1304 calls)
     davcio       :      0.00s CPU      0.01s WALL (      19 calls)


     PWSCF        :     22.35s CPU     22.43s WALL


   This run was terminated on:  14: 2:20  28Feb2022            

=------------------------------------------------------------------------------=
   JOB DONE.
=------------------------------------------------------------------------------=
